
     Program PWSCF v.7.3.1 starts on  5Feb2026 at 16:10:45 

     This program is part of the open-source Quantum ESPRESSO suite
     for quantum simulation of materials; please cite
         "P. Giannozzi et al., J. Phys.:Condens. Matter 21 395502 (2009);
         "P. Giannozzi et al., J. Phys.:Condens. Matter 29 465901 (2017);
         "P. Giannozzi et al., J. Chem. Phys. 152 154105 (2020);
          URL http://www.quantum-espresso.org", 
     in publications or presentations arising from this work. More details at
     http://www.quantum-espresso.org/quote

     Parallel version (MPI), running on   128 processors

     MPI processes distributed on     1 nodes
     241422 MiB available memory on the printing compute node when the environment starts

     Waiting for input...
     Reading input from standard input

     Current dimensions of program PWSCF are:
     Max number of different atomic species (ntypx) = 10
     Max number of k-points (npk) =  40000
     Max angular momentum in pseudopotentials (lmaxx) =  4

     K-points division:     npool     =       8
     R & G space division:  proc/nbgrp/npool/nimage =      16
     Subspace diagonalization in iterative solution of the eigenvalue problem:
     a serial algorithm will be used


     Parallelization info
     --------------------
     sticks:   dense  smooth     PW     G-vecs:    dense   smooth      PW
     Min          83      83     27                 1466     1466     281
     Max          84      84     28                 1468     1468     282
     Sum        1341    1341    441                23463    23463    4505

     Using Slab Decomposition



     bravais-lattice index     =            7
     lattice parameter (alat)  =      11.0200  a.u.
     unit-cell volume          =     365.0809 (a.u.)^3
     number of atoms/cell      =            2
     number of atomic types    =            1
     number of electrons       =        28.00
     number of Kohn-Sham states=           14
     kinetic-energy cutoff     =      61.0000  Ry
     charge density cutoff     =     244.0000  Ry
     scf convergence threshold =      1.0E-07
     mixing beta               =       0.7000
     number of iterations used =            8  plain     mixing
     Exchange-correlation=  SLA  PW   GGX  GGC
                           (   1   4   2   2   0   0   0)

     celldm(1)=  11.020000  celldm(2)=   0.000000  celldm(3)=   0.545600
     celldm(4)=   0.000000  celldm(5)=   0.000000  celldm(6)=   0.000000

     crystal axes: (cart. coord. in units of alat)
               a(1) = (   0.500000  -0.500000   0.272800 )  
               a(2) = (   0.500000   0.500000   0.272800 )  
               a(3) = (  -0.500000  -0.500000   0.272800 )  

     reciprocal axes: (cart. coord. in units 2 pi/alat)
               b(1) = (  1.000000 -1.000000  0.000000 )  
               b(2) = (  0.000000  1.000000  1.832845 )  
               b(3) = ( -1.000000  0.000000  1.832845 )  


     PseudoPot. # 1 for Sn read from file:
     ./Sn.pw91-n-van.UPF
     MD5 check sum: a38d2a872edd1a4efd76c0a1a38f7031
     Pseudo is Ultrasoft + core correction, Zval = 14.0
     Generated by new atomic code, or converted to UPF format
     Using radial grid of  891 points,  6 beta functions with: 
                l(1) =   0
                l(2) =   0
                l(3) =   1
                l(4) =   1
                l(5) =   2
                l(6) =   2
     Q(r) pseudized with  8 coefficients,  rinner =    1.100   1.100   1.100
                                                       1.100   1.100

     atomic species   valence    mass     pseudopotential
     Sn               14.00   118.70000     Sn( 1.00)

     16 Sym. Ops., with inversion, found (12 have fractional translation)



   Cartesian axes

     site n.     atom                  positions (alat units)
         1        Sn     tau(   1) = (   0.0000000  -0.2500000   0.0682000  )
         2        Sn     tau(   2) = (   0.0000000   0.2500000  -0.0682000  )

     number of k points=    13
                       cart. coord. in units 2pi/alat
        k(    1) = (   0.0000000   0.0000000   0.0000000), wk =   0.0312500
        k(    2) = (  -0.2500000   0.0000000   0.4582111), wk =   0.2500000
        k(    3) = (   0.5000000   0.0000000  -0.9164223), wk =   0.1250000
        k(    4) = (  -0.2500000   0.2500000   0.9164223), wk =   0.2500000
        k(    5) = (   0.5000000   0.2500000  -0.4582111), wk =   0.5000000
        k(    6) = (   0.2500000   0.2500000   0.0000000), wk =   0.1250000
        k(    7) = (   0.5000000  -0.5000000  -1.8328446), wk =   0.0625000
        k(    8) = (   0.0000000   0.0000000   0.9164223), wk =   0.0625000
        k(    9) = (   0.7500000   0.0000000  -0.4582111), wk =   0.2500000
        k(   10) = (   0.5000000   0.0000000   0.0000000), wk =   0.1250000
        k(   11) = (   0.7500000  -0.7500000  -1.8328446), wk =   0.1250000
        k(   12) = (   0.5000000  -0.5000000  -0.9164223), wk =   0.0625000
        k(   13) = (   0.0000000   0.0000000  -1.8328446), wk =   0.0312500

     Dense  grid:    23463 G-vectors     FFT dimensions: (  48,  48,  48)

     Estimated max dynamical RAM per process >       3.10 MB

     Estimated total dynamical RAM >     356.87 MB

     Initial potential from superposition of free atoms

     starting charge      27.9964, renormalised to      28.0000
     Starting wfcs are   18 randomized atomic wfcs

     total cpu time spent up to now is        0.8 secs

     per-process dynamical memory:    10.8 Mb

     Self-consistent Calculation

     iteration #  1     ecut=    61.00 Ry     beta= 0.70
     Davidson diagonalization with overlap
     ethr =  1.00E-02,  avg # of iterations =  1.8

     Threshold (ethr) on eigenvalues was too large:
     Diagonalizing with lowered threshold

     Davidson diagonalization with overlap
     ethr =  2.45E-05,  avg # of iterations =  3.9

     total cpu time spent up to now is        0.9 secs

     total energy              =    -325.56715702 Ry
     estimated scf accuracy    <       0.00693705 Ry

     iteration #  2     ecut=    61.00 Ry     beta= 0.70
     Davidson diagonalization with overlap
     ethr =  2.48E-05,  avg # of iterations =  2.0

     total cpu time spent up to now is        0.9 secs

     total energy              =    -325.56814353 Ry
     estimated scf accuracy    <       0.00056526 Ry

     iteration #  3     ecut=    61.00 Ry     beta= 0.70
     Davidson diagonalization with overlap
     ethr =  2.02E-06,  avg # of iterations =  2.0

     total cpu time spent up to now is        0.9 secs

     total energy              =    -325.56820567 Ry
     estimated scf accuracy    <       0.00004239 Ry

     iteration #  4     ecut=    61.00 Ry     beta= 0.70
     Davidson diagonalization with overlap
     ethr =  1.51E-07,  avg # of iterations =  2.9

     total cpu time spent up to now is        1.0 secs

     total energy              =    -325.56821218 Ry
     estimated scf accuracy    <       0.00000065 Ry

     iteration #  5     ecut=    61.00 Ry     beta= 0.70
     Davidson diagonalization with overlap
     ethr =  2.31E-09,  avg # of iterations =  3.5

     total cpu time spent up to now is        1.0 secs

     End of self-consistent calculation

          k = 0.0000 0.0000 0.0000 (  2947 PWs)   bands (ev):

   -10.8015 -10.7187 -10.6762 -10.6634 -10.5140 -10.5140 -10.5030 -10.5030
   -10.4115 -10.2984  -0.3463   7.1615   8.8406   8.8406

          k =-0.2500 0.0000 0.4582 (  2946 PWs)   bands (ev):

   -10.7656 -10.6388 -10.6331 -10.5921 -10.5699 -10.5286 -10.5200 -10.4968
   -10.4325 -10.3329   0.8919   6.5842   9.0452  11.2841

          k = 0.5000 0.0000-0.9164 (  2918 PWs)   bands (ev):

   -10.7264 -10.6560 -10.6397 -10.5997 -10.5664 -10.5629 -10.4647 -10.4165
   -10.4125 -10.3661   3.8537   5.3967   8.4884   9.1156

          k =-0.2500 0.2500 0.9164 (  2929 PWs)   bands (ev):

   -10.7402 -10.6529 -10.6096 -10.5930 -10.5907 -10.5403 -10.4808 -10.4622
   -10.3847 -10.3573   3.7392   6.0515   7.1249   9.1097

          k = 0.5000 0.2500-0.4582 (  2943 PWs)   bands (ev):

   -10.7089 -10.6496 -10.6459 -10.5923 -10.5754 -10.5179 -10.4846 -10.4765
   -10.4593 -10.3948   2.0043   4.1417   9.3966  10.6296

          k = 0.2500 0.2500 0.0000 (  2943 PWs)   bands (ev):

   -10.7514 -10.7257 -10.6905 -10.6344 -10.5406 -10.4933 -10.4914 -10.4835
   -10.4407 -10.3469   0.2184   4.5884   9.5073  10.5391

          k = 0.5000-0.5000-1.8328 (  2944 PWs)   bands (ev):

   -10.7221 -10.7221 -10.6342 -10.6342 -10.5411 -10.5411 -10.4693 -10.4693
   -10.4299 -10.4299   1.9014   1.9014  11.4194  11.4194

          k = 0.0000 0.0000 0.9164 (  2939 PWs)   bands (ev):

   -10.7316 -10.6248 -10.6248 -10.6058 -10.5601 -10.5601 -10.5352 -10.4432
   -10.3871 -10.3417   3.2961   7.1436   7.9745   9.4601

          k = 0.7500 0.0000-0.4582 (  2931 PWs)   bands (ev):

   -10.6960 -10.6537 -10.5913 -10.5825 -10.5480 -10.5312 -10.5199 -10.4839
   -10.4770 -10.4207   3.0233   4.3602   7.2635   8.4588

          k = 0.5000 0.0000 0.0000 (  2952 PWs)   bands (ev):

   -10.7375 -10.7081 -10.6960 -10.6028 -10.5180 -10.5102 -10.5066 -10.4634
   -10.4616 -10.3920   0.7809   4.3548   7.0815  10.7940

          k = 0.7500-0.7500-1.8328 (  2938 PWs)   bands (ev):

   -10.7285 -10.7285 -10.5966 -10.5966 -10.5333 -10.5333 -10.4835 -10.4835
   -10.4546 -10.4546   2.4057   2.4057   7.9932   7.9932

          k = 0.5000-0.5000-0.9164 (  2932 PWs)   bands (ev):

   -10.7047 -10.7047 -10.6344 -10.6344 -10.5273 -10.5273 -10.4331 -10.4331
   -10.4053 -10.4053   4.8062   4.8062   7.2829   7.2829

          k = 0.0000 0.0000-1.8328 (  2956 PWs)   bands (ev):

   -10.7315 -10.7315 -10.5329 -10.5329 -10.5231 -10.5231 -10.5110 -10.5110
   -10.4983 -10.4983   3.2432   3.2432   6.0138   6.0138

     highest occupied level (ev):    11.4194

!    total energy              =    -325.56821246 Ry
     estimated scf accuracy    <       0.00000008 Ry

     The total energy is the sum of the following terms:
     one-electron contribution =    -107.30339203 Ry
     hartree contribution      =      74.47264271 Ry
     xc contribution           =     -95.22215991 Ry
     ewald contribution        =    -197.51530323 Ry

     convergence has been achieved in   5 iterations

     Writing all to output data dir ./beta-sn-scf/betatin.save/ :
     XML data file, charge density, pseudopotentials, collected wavefunctions

     init_run     :      0.44s CPU      0.48s WALL (       1 calls)
     electrons    :      0.21s CPU      0.27s WALL (       1 calls)

     Called by init_run:
     wfcinit      :      0.02s CPU      0.02s WALL (       1 calls)
     potinit      :      0.02s CPU      0.02s WALL (       1 calls)
     hinit0       :      0.38s CPU      0.40s WALL (       1 calls)

     Called by electrons:
     c_bands      :      0.13s CPU      0.15s WALL (       6 calls)
     sum_band     :      0.03s CPU      0.05s WALL (       6 calls)
     v_of_rho     :      0.04s CPU      0.04s WALL (       6 calls)
     newd         :      0.01s CPU      0.01s WALL (       6 calls)
     mix_rho      :      0.00s CPU      0.00s WALL (       6 calls)

     Called by c_bands:
     init_us_2    :      0.00s CPU      0.00s WALL (      26 calls)
     cegterg      :      0.11s CPU      0.13s WALL (      12 calls)

     Called by *egterg:
     cdiaghg      :      0.02s CPU      0.02s WALL (      49 calls)
     h_psi        :      0.10s CPU      0.12s WALL (      53 calls)
     s_psi        :      0.00s CPU      0.00s WALL (      53 calls)
     g_psi        :      0.00s CPU      0.00s WALL (      39 calls)

     Called by h_psi:
     h_psi:calbec :      0.00s CPU      0.01s WALL (      53 calls)
     vloc_psi     :      0.09s CPU      0.10s WALL (      53 calls)
     add_vuspsi   :      0.00s CPU      0.00s WALL (      53 calls)

     General routines
     calbec       :      0.00s CPU      0.01s WALL (      65 calls)
     fft          :      0.36s CPU      0.37s WALL (      67 calls)
     ffts         :      0.00s CPU      0.00s WALL (       6 calls)
     fftw         :      0.09s CPU      0.11s WALL (    1082 calls)

     Parallel routines

     PWSCF        :      0.87s CPU      1.12s WALL


   This run was terminated on:  16:10:46   5Feb2026            

=------------------------------------------------------------------------------=
   JOB DONE.
=------------------------------------------------------------------------------=
