
     Program PWSCF v.7.3.1 starts on  5Feb2026 at 16: 8:14 

     This program is part of the open-source Quantum ESPRESSO suite
     for quantum simulation of materials; please cite
         "P. Giannozzi et al., J. Phys.:Condens. Matter 21 395502 (2009);
         "P. Giannozzi et al., J. Phys.:Condens. Matter 29 465901 (2017);
         "P. Giannozzi et al., J. Chem. Phys. 152 154105 (2020);
          URL http://www.quantum-espresso.org", 
     in publications or presentations arising from this work. More details at
     http://www.quantum-espresso.org/quote

     Parallel version (MPI), running on   128 processors

     MPI processes distributed on     1 nodes
     241390 MiB available memory on the printing compute node when the environment starts

     Waiting for input...
     Reading input from standard input

     Current dimensions of program PWSCF are:
     Max number of different atomic species (ntypx) = 10
     Max number of k-points (npk) =  40000
     Max angular momentum in pseudopotentials (lmaxx) =  4

     K-points division:     npool     =       8
     R & G space division:  proc/nbgrp/npool/nimage =      16
     Subspace diagonalization in iterative solution of the eigenvalue problem:
     a serial algorithm will be used


     Parallelization info
     --------------------
     sticks:   dense  smooth     PW     G-vecs:    dense   smooth      PW
     Min          61      61     21                  929      929     190
     Max          62      62     22                  931      931     192
     Sum         985     985    343                14873    14873    3051

     Using Slab Decomposition



     bravais-lattice index     =            7
     lattice parameter (alat)  =      11.0200  a.u.
     unit-cell volume          =     365.0809 (a.u.)^3
     number of atoms/cell      =            2
     number of atomic types    =            1
     number of electrons       =        28.00
     number of Kohn-Sham states=           14
     kinetic-energy cutoff     =      45.0000  Ry
     charge density cutoff     =     180.0000  Ry
     scf convergence threshold =      1.0E-07
     mixing beta               =       0.7000
     number of iterations used =            8  plain     mixing
     Exchange-correlation=  SLA  PW   GGX  GGC
                           (   1   4   2   2   0   0   0)

     celldm(1)=  11.020000  celldm(2)=   0.000000  celldm(3)=   0.545600
     celldm(4)=   0.000000  celldm(5)=   0.000000  celldm(6)=   0.000000

     crystal axes: (cart. coord. in units of alat)
               a(1) = (   0.500000  -0.500000   0.272800 )  
               a(2) = (   0.500000   0.500000   0.272800 )  
               a(3) = (  -0.500000  -0.500000   0.272800 )  

     reciprocal axes: (cart. coord. in units 2 pi/alat)
               b(1) = (  1.000000 -1.000000  0.000000 )  
               b(2) = (  0.000000  1.000000  1.832845 )  
               b(3) = ( -1.000000  0.000000  1.832845 )  


     PseudoPot. # 1 for Sn read from file:
     ./Sn.pw91-n-van.UPF
     MD5 check sum: a38d2a872edd1a4efd76c0a1a38f7031
     Pseudo is Ultrasoft + core correction, Zval = 14.0
     Generated by new atomic code, or converted to UPF format
     Using radial grid of  891 points,  6 beta functions with: 
                l(1) =   0
                l(2) =   0
                l(3) =   1
                l(4) =   1
                l(5) =   2
                l(6) =   2
     Q(r) pseudized with  8 coefficients,  rinner =    1.100   1.100   1.100
                                                       1.100   1.100

     atomic species   valence    mass     pseudopotential
     Sn               14.00   118.70000     Sn( 1.00)

     16 Sym. Ops., with inversion, found (12 have fractional translation)



   Cartesian axes

     site n.     atom                  positions (alat units)
         1        Sn     tau(   1) = (   0.0000000  -0.2500000   0.0682000  )
         2        Sn     tau(   2) = (   0.0000000   0.2500000  -0.0682000  )

     number of k points=    13
                       cart. coord. in units 2pi/alat
        k(    1) = (   0.0000000   0.0000000   0.0000000), wk =   0.0312500
        k(    2) = (  -0.2500000   0.0000000   0.4582111), wk =   0.2500000
        k(    3) = (   0.5000000   0.0000000  -0.9164223), wk =   0.1250000
        k(    4) = (  -0.2500000   0.2500000   0.9164223), wk =   0.2500000
        k(    5) = (   0.5000000   0.2500000  -0.4582111), wk =   0.5000000
        k(    6) = (   0.2500000   0.2500000   0.0000000), wk =   0.1250000
        k(    7) = (   0.5000000  -0.5000000  -1.8328446), wk =   0.0625000
        k(    8) = (   0.0000000   0.0000000   0.9164223), wk =   0.0625000
        k(    9) = (   0.7500000   0.0000000  -0.4582111), wk =   0.2500000
        k(   10) = (   0.5000000   0.0000000   0.0000000), wk =   0.1250000
        k(   11) = (   0.7500000  -0.7500000  -1.8328446), wk =   0.1250000
        k(   12) = (   0.5000000  -0.5000000  -0.9164223), wk =   0.0625000
        k(   13) = (   0.0000000   0.0000000  -1.8328446), wk =   0.0312500

     Dense  grid:    14873 G-vectors     FFT dimensions: (  36,  36,  36)

     Estimated max dynamical RAM per process >       2.21 MB

     Estimated total dynamical RAM >     258.01 MB

     Initial potential from superposition of free atoms

     starting charge      27.9964, renormalised to      28.0000
     Starting wfcs are   18 randomized atomic wfcs

     total cpu time spent up to now is        0.7 secs

     per-process dynamical memory:     9.8 Mb

     Self-consistent Calculation

     iteration #  1     ecut=    45.00 Ry     beta= 0.70
     Davidson diagonalization with overlap
     ethr =  1.00E-02,  avg # of iterations =  1.8

     Threshold (ethr) on eigenvalues was too large:
     Diagonalizing with lowered threshold

     Davidson diagonalization with overlap
     ethr =  2.47E-05,  avg # of iterations =  3.7

     total cpu time spent up to now is        0.7 secs

     total energy              =    -325.55938626 Ry
     estimated scf accuracy    <       0.00702096 Ry

     iteration #  2     ecut=    45.00 Ry     beta= 0.70
     Davidson diagonalization with overlap
     ethr =  2.51E-05,  avg # of iterations =  2.0

     total cpu time spent up to now is        0.8 secs

     total energy              =    -325.56041954 Ry
     estimated scf accuracy    <       0.00056605 Ry

     iteration #  3     ecut=    45.00 Ry     beta= 0.70
     Davidson diagonalization with overlap
     ethr =  2.02E-06,  avg # of iterations =  2.7

     total cpu time spent up to now is        0.8 secs

     total energy              =    -325.56049343 Ry
     estimated scf accuracy    <       0.00004452 Ry

     iteration #  4     ecut=    45.00 Ry     beta= 0.70
     Davidson diagonalization with overlap
     ethr =  1.59E-07,  avg # of iterations =  2.2

     total cpu time spent up to now is        0.8 secs

     total energy              =    -325.56049701 Ry
     estimated scf accuracy    <       0.00000016 Ry

     iteration #  5     ecut=    45.00 Ry     beta= 0.70
     Davidson diagonalization with overlap
     ethr =  5.64E-10,  avg # of iterations =  4.9

     total cpu time spent up to now is        0.9 secs

     End of self-consistent calculation

          k = 0.0000 0.0000 0.0000 (  1851 PWs)   bands (ev):

   -10.7985 -10.7160 -10.6726 -10.6606 -10.5106 -10.5106 -10.4995 -10.4995
   -10.4077 -10.2944  -0.3477   7.1596   8.8396   8.8396

          k =-0.2500 0.0000 0.4582 (  1855 PWs)   bands (ev):

   -10.7626 -10.6352 -10.6302 -10.5890 -10.5665 -10.5252 -10.5166 -10.4937
   -10.4287 -10.3290   0.8905   6.5826   9.0442  11.2828

          k = 0.5000 0.0000-0.9164 (  1860 PWs)   bands (ev):

   -10.7233 -10.6529 -10.6363 -10.5968 -10.5628 -10.5597 -10.4611 -10.4134
   -10.4098 -10.3628   3.8524   5.3952   8.4866   9.1141

          k =-0.2500 0.2500 0.9164 (  1853 PWs)   bands (ev):

   -10.7372 -10.6496 -10.6063 -10.5894 -10.5875 -10.5367 -10.4779 -10.4587
   -10.3820 -10.3537   3.7379   6.0500   7.1233   9.1083

          k = 0.5000 0.2500-0.4582 (  1868 PWs)   bands (ev):

   -10.7059 -10.6465 -10.6430 -10.5889 -10.5719 -10.5145 -10.4810 -10.4732
   -10.4558 -10.3910   2.0029   4.1403   9.3955  10.6282

          k = 0.2500 0.2500 0.0000 (  1861 PWs)   bands (ev):

   -10.7485 -10.7228 -10.6875 -10.6307 -10.5372 -10.4898 -10.4881 -10.4800
   -10.4370 -10.3431   0.2170   4.5869   9.5064  10.5375

          k = 0.5000-0.5000-1.8328 (  1856 PWs)   bands (ev):

   -10.7192 -10.7192 -10.6311 -10.6311 -10.5375 -10.5375 -10.4658 -10.4658
   -10.4263 -10.4263   1.9000   1.9000  11.4186  11.4186

          k = 0.0000 0.0000 0.9164 (  1866 PWs)   bands (ev):

   -10.7287 -10.6212 -10.6212 -10.6019 -10.5567 -10.5567 -10.5327 -10.4394
   -10.3844 -10.3380   3.2947   7.1419   7.9728   9.4592

          k = 0.7500 0.0000-0.4582 (  1865 PWs)   bands (ev):

   -10.6931 -10.6509 -10.5882 -10.5790 -10.5445 -10.5277 -10.5167 -10.4803
   -10.4736 -10.4171   3.0219   4.3588   7.2623   8.4575

          k = 0.5000 0.0000 0.0000 (  1864 PWs)   bands (ev):

   -10.7346 -10.7050 -10.6928 -10.5992 -10.5146 -10.5068 -10.5030 -10.4600
   -10.4580 -10.3882   0.7795   4.3533   7.0803  10.7928

          k = 0.7500-0.7500-1.8328 (  1876 PWs)   bands (ev):

   -10.7256 -10.7256 -10.5932 -10.5932 -10.5297 -10.5297 -10.4801 -10.4801
   -10.4510 -10.4510   2.4043   2.4043   7.9919   7.9919

          k = 0.5000-0.5000-0.9164 (  1860 PWs)   bands (ev):

   -10.7015 -10.7015 -10.6312 -10.6312 -10.5237 -10.5237 -10.4294 -10.4294
   -10.4027 -10.4027   4.8048   4.8048   7.2814   7.2814

          k = 0.0000 0.0000-1.8328 (  1870 PWs)   bands (ev):

   -10.7284 -10.7284 -10.5291 -10.5291 -10.5194 -10.5194 -10.5076 -10.5076
   -10.4948 -10.4948   3.2418   3.2418   6.0125   6.0125

     highest occupied level (ev):    11.4186

!    total energy              =    -325.56049736 Ry
     estimated scf accuracy    <          8.5E-09 Ry

     The total energy is the sum of the following terms:
     one-electron contribution =    -107.29312872 Ry
     hartree contribution      =      74.46843830 Ry
     xc contribution           =     -95.22050369 Ry
     ewald contribution        =    -197.51530324 Ry

     convergence has been achieved in   5 iterations

     Writing all to output data dir ./beta-sn-scf/betatin.save/ :
     XML data file, charge density, pseudopotentials, collected wavefunctions

     init_run     :      0.32s CPU      0.38s WALL (       1 calls)
     electrons    :      0.18s CPU      0.22s WALL (       1 calls)

     Called by init_run:
     wfcinit      :      0.01s CPU      0.02s WALL (       1 calls)
     potinit      :      0.01s CPU      0.02s WALL (       1 calls)
     hinit0       :      0.28s CPU      0.30s WALL (       1 calls)

     Called by electrons:
     c_bands      :      0.11s CPU      0.13s WALL (       6 calls)
     sum_band     :      0.03s CPU      0.04s WALL (       6 calls)
     v_of_rho     :      0.02s CPU      0.03s WALL (       6 calls)
     newd         :      0.01s CPU      0.01s WALL (       6 calls)
     mix_rho      :      0.00s CPU      0.00s WALL (       6 calls)

     Called by c_bands:
     init_us_2    :      0.00s CPU      0.00s WALL (      26 calls)
     cegterg      :      0.10s CPU      0.11s WALL (      12 calls)

     Called by *egterg:
     cdiaghg      :      0.01s CPU      0.02s WALL (      52 calls)
     h_psi        :      0.08s CPU      0.09s WALL (      56 calls)
     s_psi        :      0.00s CPU      0.00s WALL (      56 calls)
     g_psi        :      0.00s CPU      0.00s WALL (      42 calls)

     Called by h_psi:
     h_psi:calbec :      0.00s CPU      0.01s WALL (      56 calls)
     vloc_psi     :      0.07s CPU      0.08s WALL (      56 calls)
     add_vuspsi   :      0.00s CPU      0.00s WALL (      56 calls)

     General routines
     calbec       :      0.00s CPU      0.01s WALL (      68 calls)
     fft          :      0.26s CPU      0.27s WALL (      67 calls)
     ffts         :      0.00s CPU      0.00s WALL (       6 calls)
     fftw         :      0.08s CPU      0.09s WALL (    1122 calls)

     Parallel routines

     PWSCF        :      0.72s CPU      0.98s WALL


   This run was terminated on:  16: 8:15   5Feb2026            

=------------------------------------------------------------------------------=
   JOB DONE.
=------------------------------------------------------------------------------=
