
     Program PWSCF v.7.3.1 starts on  5Feb2026 at 16:28:34 

     This program is part of the open-source Quantum ESPRESSO suite
     for quantum simulation of materials; please cite
         "P. Giannozzi et al., J. Phys.:Condens. Matter 21 395502 (2009);
         "P. Giannozzi et al., J. Phys.:Condens. Matter 29 465901 (2017);
         "P. Giannozzi et al., J. Chem. Phys. 152 154105 (2020);
          URL http://www.quantum-espresso.org", 
     in publications or presentations arising from this work. More details at
     http://www.quantum-espresso.org/quote

     Parallel version (MPI), running on   128 processors

     MPI processes distributed on     1 nodes
     241272 MiB available memory on the printing compute node when the environment starts

     Waiting for input...
     Reading input from standard input

     Current dimensions of program PWSCF are:
     Max number of different atomic species (ntypx) = 10
     Max number of k-points (npk) =  40000
     Max angular momentum in pseudopotentials (lmaxx) =  4

     K-points division:     npool     =       4
     R & G space division:  proc/nbgrp/npool/nimage =      32
     Subspace diagonalization in iterative solution of the eigenvalue problem:
     a serial algorithm will be used


     Parallelization info
     --------------------
     sticks:   dense  smooth     PW     G-vecs:    dense   smooth      PW
     Min         109     109     32                 3090     3090     506
     Max         110     110     33                 3093     3093     509
     Sum        3503    3503   1055                98917    98917   16257

     Using Slab Decomposition



     bravais-lattice index     =            7
     lattice parameter (alat)  =      11.0200  a.u.
     unit-cell volume          =     365.0809 (a.u.)^3
     number of atoms/cell      =            2
     number of atomic types    =            1
     number of electrons       =        28.00
     number of Kohn-Sham states=           14
     kinetic-energy cutoff     =     159.0000  Ry
     charge density cutoff     =     636.0000  Ry
     scf convergence threshold =      1.0E-07
     mixing beta               =       0.7000
     number of iterations used =            8  plain     mixing
     Exchange-correlation=  SLA  PW   GGX  GGC
                           (   1   4   2   2   0   0   0)

     celldm(1)=  11.020000  celldm(2)=   0.000000  celldm(3)=   0.545600
     celldm(4)=   0.000000  celldm(5)=   0.000000  celldm(6)=   0.000000

     crystal axes: (cart. coord. in units of alat)
               a(1) = (   0.500000  -0.500000   0.272800 )  
               a(2) = (   0.500000   0.500000   0.272800 )  
               a(3) = (  -0.500000  -0.500000   0.272800 )  

     reciprocal axes: (cart. coord. in units 2 pi/alat)
               b(1) = (  1.000000 -1.000000  0.000000 )  
               b(2) = (  0.000000  1.000000  1.832845 )  
               b(3) = ( -1.000000  0.000000  1.832845 )  


     PseudoPot. # 1 for Sn read from file:
     ./Sn.pw91-n-van.UPF
     MD5 check sum: a38d2a872edd1a4efd76c0a1a38f7031
     Pseudo is Ultrasoft + core correction, Zval = 14.0
     Generated by new atomic code, or converted to UPF format
     Using radial grid of  891 points,  6 beta functions with: 
                l(1) =   0
                l(2) =   0
                l(3) =   1
                l(4) =   1
                l(5) =   2
                l(6) =   2
     Q(r) pseudized with  8 coefficients,  rinner =    1.100   1.100   1.100
                                                       1.100   1.100

     atomic species   valence    mass     pseudopotential
     Sn               14.00   118.70000     Sn( 1.00)

     16 Sym. Ops., with inversion, found (12 have fractional translation)



   Cartesian axes

     site n.     atom                  positions (alat units)
         1        Sn     tau(   1) = (   0.0000000  -0.2500000   0.0682000  )
         2        Sn     tau(   2) = (   0.0000000   0.2500000  -0.0682000  )

     number of k points=    13
                       cart. coord. in units 2pi/alat
        k(    1) = (   0.0000000   0.0000000   0.0000000), wk =   0.0312500
        k(    2) = (  -0.2500000   0.0000000   0.4582111), wk =   0.2500000
        k(    3) = (   0.5000000   0.0000000  -0.9164223), wk =   0.1250000
        k(    4) = (  -0.2500000   0.2500000   0.9164223), wk =   0.2500000
        k(    5) = (   0.5000000   0.2500000  -0.4582111), wk =   0.5000000
        k(    6) = (   0.2500000   0.2500000   0.0000000), wk =   0.1250000
        k(    7) = (   0.5000000  -0.5000000  -1.8328446), wk =   0.0625000
        k(    8) = (   0.0000000   0.0000000   0.9164223), wk =   0.0625000
        k(    9) = (   0.7500000   0.0000000  -0.4582111), wk =   0.2500000
        k(   10) = (   0.5000000   0.0000000   0.0000000), wk =   0.1250000
        k(   11) = (   0.7500000  -0.7500000  -1.8328446), wk =   0.1250000
        k(   12) = (   0.5000000  -0.5000000  -0.9164223), wk =   0.0625000
        k(   13) = (   0.0000000   0.0000000  -1.8328446), wk =   0.0312500

     Dense  grid:    98917 G-vectors     FFT dimensions: (  72,  72,  72)

     Estimated max dynamical RAM per process >       7.25 MB

     Estimated total dynamical RAM >     855.58 MB

     Initial potential from superposition of free atoms

     starting charge      27.9964, renormalised to      28.0000
     Starting wfcs are   18 randomized atomic wfcs

     total cpu time spent up to now is        1.1 secs

     per-process dynamical memory:    13.0 Mb

     Self-consistent Calculation

     iteration #  1     ecut=   159.00 Ry     beta= 0.70
     Davidson diagonalization with overlap
     ethr =  1.00E-02,  avg # of iterations =  1.8

     Threshold (ethr) on eigenvalues was too large:
     Diagonalizing with lowered threshold

     Davidson diagonalization with overlap
     ethr =  2.33E-05,  avg # of iterations =  3.6

     total cpu time spent up to now is        1.4 secs

     total energy              =    -325.58246167 Ry
     estimated scf accuracy    <       0.00680435 Ry

     iteration #  2     ecut=   159.00 Ry     beta= 0.70
     Davidson diagonalization with overlap
     ethr =  2.43E-05,  avg # of iterations =  2.0

     total cpu time spent up to now is        1.5 secs

     total energy              =    -325.58379868 Ry
     estimated scf accuracy    <       0.00051931 Ry

     iteration #  3     ecut=   159.00 Ry     beta= 0.70
     Davidson diagonalization with overlap
     ethr =  1.85E-06,  avg # of iterations =  2.3

     total cpu time spent up to now is        1.7 secs

     total energy              =    -325.58389863 Ry
     estimated scf accuracy    <       0.00003835 Ry

     iteration #  4     ecut=   159.00 Ry     beta= 0.70
     Davidson diagonalization with overlap
     ethr =  1.37E-07,  avg # of iterations =  3.1

     total cpu time spent up to now is        1.8 secs

     total energy              =    -325.58390370 Ry
     estimated scf accuracy    <       0.00000035 Ry

     iteration #  5     ecut=   159.00 Ry     beta= 0.70
     Davidson diagonalization with overlap
     ethr =  1.26E-09,  avg # of iterations =  3.8

     total cpu time spent up to now is        2.0 secs

     End of self-consistent calculation

          k = 0.0000 0.0000 0.0000 ( 12325 PWs)   bands (ev):

   -10.8097 -10.7269 -10.6832 -10.6716 -10.5216 -10.5216 -10.5105 -10.5105
   -10.4186 -10.3064  -0.3471   7.1616   8.8398   8.8398

          k =-0.2500 0.0000 0.4582 ( 12352 PWs)   bands (ev):

   -10.7737 -10.6459 -10.6411 -10.5999 -10.5775 -10.5362 -10.5277 -10.5048
   -10.4396 -10.3409   0.8911   6.5842   9.0440  11.2833

          k = 0.5000 0.0000-0.9164 ( 12368 PWs)   bands (ev):

   -10.7344 -10.6639 -10.6471 -10.6077 -10.5737 -10.5706 -10.4720 -10.4247
   -10.4210 -10.3744   3.8534   5.3958   8.4876   9.1144

          k =-0.2500 0.2500 0.9164 ( 12362 PWs)   bands (ev):

   -10.7483 -10.6605 -10.6172 -10.6002 -10.5984 -10.5478 -10.4890 -10.4697
   -10.3932 -10.3654   3.7388   6.0512   7.1233   9.1084

          k = 0.5000 0.2500-0.4582 ( 12370 PWs)   bands (ev):

   -10.7170 -10.6575 -10.6538 -10.5999 -10.5828 -10.5256 -10.4920 -10.4843
   -10.4671 -10.4026   2.0035   4.1412   9.3955  10.6281

          k = 0.2500 0.2500 0.0000 ( 12329 PWs)   bands (ev):

   -10.7596 -10.7337 -10.6984 -10.6414 -10.5483 -10.5009 -10.4992 -10.4912
   -10.4480 -10.3550   0.2175   4.5879   9.5064  10.5378

          k = 0.5000-0.5000-1.8328 ( 12372 PWs)   bands (ev):

   -10.7301 -10.7301 -10.6422 -10.6422 -10.5483 -10.5483 -10.4769 -10.4769
   -10.4378 -10.4378   1.9007   1.9007  11.4183  11.4183

          k = 0.0000 0.0000 0.9164 ( 12384 PWs)   bands (ev):

   -10.7399 -10.6322 -10.6322 -10.6127 -10.5677 -10.5677 -10.5437 -10.4504
   -10.3956 -10.3498   3.2955   7.1434   7.9732   9.4589

          k = 0.7500 0.0000-0.4582 ( 12343 PWs)   bands (ev):

   -10.7042 -10.6619 -10.5993 -10.5899 -10.5554 -10.5387 -10.5278 -10.4912
   -10.4849 -10.4287   3.0227   4.3599   7.2618   8.4574

          k = 0.5000 0.0000 0.0000 ( 12332 PWs)   bands (ev):

   -10.7456 -10.7159 -10.7039 -10.6099 -10.5257 -10.5179 -10.5140 -10.4712
   -10.4690 -10.3999   0.7801   4.3545   7.0799  10.7926

          k = 0.7500-0.7500-1.8328 ( 12354 PWs)   bands (ev):

   -10.7366 -10.7366 -10.6044 -10.6044 -10.5406 -10.5406 -10.4911 -10.4911
   -10.4625 -10.4625   2.4050   2.4050   7.9917   7.9917

          k = 0.5000-0.5000-0.9164 ( 12352 PWs)   bands (ev):

   -10.7125 -10.7125 -10.6420 -10.6420 -10.5345 -10.5345 -10.4409 -10.4409
   -10.4138 -10.4138   4.8060   4.8060   7.2812   7.2812

          k = 0.0000 0.0000-1.8328 ( 12376 PWs)   bands (ev):

   -10.7394 -10.7394 -10.5407 -10.5407 -10.5303 -10.5303 -10.5187 -10.5187
   -10.5059 -10.5059   3.2428   3.2428   6.0120   6.0120

     highest occupied level (ev):    11.4183

!    total energy              =    -325.58390390 Ry
     estimated scf accuracy    <       0.00000001 Ry

     The total energy is the sum of the following terms:
     one-electron contribution =    -107.32221800 Ry
     hartree contribution      =      74.47589414 Ry
     xc contribution           =     -95.22227685 Ry
     ewald contribution        =    -197.51530320 Ry

     convergence has been achieved in   5 iterations

     Writing all to output data dir ./beta-sn-scf/betatin.save/ :
     XML data file, charge density, pseudopotentials, collected wavefunctions

     init_run     :      0.72s CPU      0.78s WALL (       1 calls)
     electrons    :      0.80s CPU      0.89s WALL (       1 calls)

     Called by init_run:
     wfcinit      :      0.06s CPU      0.07s WALL (       1 calls)
     potinit      :      0.02s CPU      0.03s WALL (       1 calls)
     hinit0       :      0.59s CPU      0.60s WALL (       1 calls)

     Called by electrons:
     c_bands      :      0.55s CPU      0.58s WALL (       6 calls)
     sum_band     :      0.14s CPU      0.16s WALL (       6 calls)
     v_of_rho     :      0.07s CPU      0.09s WALL (       6 calls)
     newd         :      0.03s CPU      0.03s WALL (       6 calls)
     mix_rho      :      0.01s CPU      0.01s WALL (       6 calls)

     Called by c_bands:
     init_us_2    :      0.01s CPU      0.01s WALL (      52 calls)
     cegterg      :      0.51s CPU      0.53s WALL (      24 calls)

     Called by *egterg:
     cdiaghg      :      0.03s CPU      0.03s WALL (      93 calls)
     h_psi        :      0.49s CPU      0.51s WALL (     101 calls)
     s_psi        :      0.01s CPU      0.01s WALL (     101 calls)
     g_psi        :      0.00s CPU      0.00s WALL (      73 calls)

     Called by h_psi:
     h_psi:calbec :      0.02s CPU      0.02s WALL (     101 calls)
     vloc_psi     :      0.47s CPU      0.48s WALL (     101 calls)
     add_vuspsi   :      0.01s CPU      0.01s WALL (     101 calls)

     General routines
     calbec       :      0.02s CPU      0.02s WALL (     125 calls)
     fft          :      0.58s CPU      0.59s WALL (      67 calls)
     ffts         :      0.00s CPU      0.00s WALL (       6 calls)
     fftw         :      0.50s CPU      0.51s WALL (    2158 calls)

     Parallel routines

     PWSCF        :      1.78s CPU      2.12s WALL


   This run was terminated on:  16:28:36   5Feb2026            

=------------------------------------------------------------------------------=
   JOB DONE.
=------------------------------------------------------------------------------=
