
     Program PWSCF v.7.3.1 starts on  5Feb2026 at 16: 9:28 

     This program is part of the open-source Quantum ESPRESSO suite
     for quantum simulation of materials; please cite
         "P. Giannozzi et al., J. Phys.:Condens. Matter 21 395502 (2009);
         "P. Giannozzi et al., J. Phys.:Condens. Matter 29 465901 (2017);
         "P. Giannozzi et al., J. Chem. Phys. 152 154105 (2020);
          URL http://www.quantum-espresso.org", 
     in publications or presentations arising from this work. More details at
     http://www.quantum-espresso.org/quote

     Parallel version (MPI), running on   128 processors

     MPI processes distributed on     1 nodes
     241329 MiB available memory on the printing compute node when the environment starts

     Waiting for input...
     Reading input from standard input

     Current dimensions of program PWSCF are:
     Max number of different atomic species (ntypx) = 10
     Max number of k-points (npk) =  40000
     Max angular momentum in pseudopotentials (lmaxx) =  4

     K-points division:     npool     =       8
     R & G space division:  proc/nbgrp/npool/nimage =      16
     Subspace diagonalization in iterative solution of the eigenvalue problem:
     a serial algorithm will be used


     Parallelization info
     --------------------
     sticks:   dense  smooth     PW     G-vecs:    dense   smooth      PW
     Min          73      73     24                 1190     1190     233
     Max          74      74     25                 1192     1192     236
     Sum        1173    1173    395                19053    19053    3749

     Using Slab Decomposition



     bravais-lattice index     =            7
     lattice parameter (alat)  =      11.0200  a.u.
     unit-cell volume          =     365.0809 (a.u.)^3
     number of atoms/cell      =            2
     number of atomic types    =            1
     number of electrons       =        28.00
     number of Kohn-Sham states=           14
     kinetic-energy cutoff     =      53.0000  Ry
     charge density cutoff     =     212.0000  Ry
     scf convergence threshold =      1.0E-07
     mixing beta               =       0.7000
     number of iterations used =            8  plain     mixing
     Exchange-correlation=  SLA  PW   GGX  GGC
                           (   1   4   2   2   0   0   0)

     celldm(1)=  11.020000  celldm(2)=   0.000000  celldm(3)=   0.545600
     celldm(4)=   0.000000  celldm(5)=   0.000000  celldm(6)=   0.000000

     crystal axes: (cart. coord. in units of alat)
               a(1) = (   0.500000  -0.500000   0.272800 )  
               a(2) = (   0.500000   0.500000   0.272800 )  
               a(3) = (  -0.500000  -0.500000   0.272800 )  

     reciprocal axes: (cart. coord. in units 2 pi/alat)
               b(1) = (  1.000000 -1.000000  0.000000 )  
               b(2) = (  0.000000  1.000000  1.832845 )  
               b(3) = ( -1.000000  0.000000  1.832845 )  


     PseudoPot. # 1 for Sn read from file:
     ./Sn.pw91-n-van.UPF
     MD5 check sum: a38d2a872edd1a4efd76c0a1a38f7031
     Pseudo is Ultrasoft + core correction, Zval = 14.0
     Generated by new atomic code, or converted to UPF format
     Using radial grid of  891 points,  6 beta functions with: 
                l(1) =   0
                l(2) =   0
                l(3) =   1
                l(4) =   1
                l(5) =   2
                l(6) =   2
     Q(r) pseudized with  8 coefficients,  rinner =    1.100   1.100   1.100
                                                       1.100   1.100

     atomic species   valence    mass     pseudopotential
     Sn               14.00   118.70000     Sn( 1.00)

     16 Sym. Ops., with inversion, found (12 have fractional translation)



   Cartesian axes

     site n.     atom                  positions (alat units)
         1        Sn     tau(   1) = (   0.0000000  -0.2500000   0.0682000  )
         2        Sn     tau(   2) = (   0.0000000   0.2500000  -0.0682000  )

     number of k points=    13
                       cart. coord. in units 2pi/alat
        k(    1) = (   0.0000000   0.0000000   0.0000000), wk =   0.0312500
        k(    2) = (  -0.2500000   0.0000000   0.4582111), wk =   0.2500000
        k(    3) = (   0.5000000   0.0000000  -0.9164223), wk =   0.1250000
        k(    4) = (  -0.2500000   0.2500000   0.9164223), wk =   0.2500000
        k(    5) = (   0.5000000   0.2500000  -0.4582111), wk =   0.5000000
        k(    6) = (   0.2500000   0.2500000   0.0000000), wk =   0.1250000
        k(    7) = (   0.5000000  -0.5000000  -1.8328446), wk =   0.0625000
        k(    8) = (   0.0000000   0.0000000   0.9164223), wk =   0.0625000
        k(    9) = (   0.7500000   0.0000000  -0.4582111), wk =   0.2500000
        k(   10) = (   0.5000000   0.0000000   0.0000000), wk =   0.1250000
        k(   11) = (   0.7500000  -0.7500000  -1.8328446), wk =   0.1250000
        k(   12) = (   0.5000000  -0.5000000  -0.9164223), wk =   0.0625000
        k(   13) = (   0.0000000   0.0000000  -1.8328446), wk =   0.0312500

     Dense  grid:    19053 G-vectors     FFT dimensions: (  40,  40,  40)

     Estimated max dynamical RAM per process >       2.61 MB

     Estimated total dynamical RAM >     301.64 MB

     Initial potential from superposition of free atoms

     starting charge      27.9964, renormalised to      28.0000
     Starting wfcs are   18 randomized atomic wfcs

     total cpu time spent up to now is        0.7 secs

     per-process dynamical memory:    10.0 Mb

     Self-consistent Calculation

     iteration #  1     ecut=    53.00 Ry     beta= 0.70
     Davidson diagonalization with overlap
     ethr =  1.00E-02,  avg # of iterations =  1.8

     Threshold (ethr) on eigenvalues was too large:
     Diagonalizing with lowered threshold

     Davidson diagonalization with overlap
     ethr =  2.45E-05,  avg # of iterations =  3.9

     negative rho (up, down):  6.808E-06 0.000E+00

     total cpu time spent up to now is        0.8 secs

     total energy              =    -325.56139996 Ry
     estimated scf accuracy    <       0.00698710 Ry

     iteration #  2     ecut=    53.00 Ry     beta= 0.70
     Davidson diagonalization with overlap
     ethr =  2.50E-05,  avg # of iterations =  2.0

     negative rho (up, down):  2.536E-05 0.000E+00

     total cpu time spent up to now is        0.8 secs

     total energy              =    -325.56238818 Ry
     estimated scf accuracy    <       0.00056532 Ry

     iteration #  3     ecut=    53.00 Ry     beta= 0.70
     Davidson diagonalization with overlap
     ethr =  2.02E-06,  avg # of iterations =  2.0

     negative rho (up, down):  3.575E-05 0.000E+00

     total cpu time spent up to now is        0.9 secs

     total energy              =    -325.56245026 Ry
     estimated scf accuracy    <       0.00004227 Ry

     iteration #  4     ecut=    53.00 Ry     beta= 0.70
     Davidson diagonalization with overlap
     ethr =  1.51E-07,  avg # of iterations =  2.8

     negative rho (up, down):  3.559E-05 0.000E+00

     total cpu time spent up to now is        0.9 secs

     total energy              =    -325.56245627 Ry
     estimated scf accuracy    <       0.00000046 Ry

     iteration #  5     ecut=    53.00 Ry     beta= 0.70
     Davidson diagonalization with overlap
     ethr =  1.63E-09,  avg # of iterations =  4.1

     negative rho (up, down):  3.553E-05 0.000E+00

     total cpu time spent up to now is        0.9 secs

     End of self-consistent calculation

          k = 0.0000 0.0000 0.0000 (  2395 PWs)   bands (ev):

   -10.7995 -10.7158 -10.6736 -10.6607 -10.5116 -10.5116 -10.5006 -10.5006
   -10.4087 -10.2955  -0.3473   7.1603   8.8399   8.8399

          k =-0.2500 0.0000 0.4582 (  2378 PWs)   bands (ev):

   -10.7634 -10.6360 -10.6306 -10.5895 -10.5676 -10.5261 -10.5174 -10.4941
   -10.4297 -10.3297   0.8909   6.5831   9.0444  11.2832

          k = 0.5000 0.0000-0.9164 (  2390 PWs)   bands (ev):

   -10.7242 -10.6541 -10.6373 -10.5974 -10.5637 -10.5608 -10.4623 -10.4140
   -10.4103 -10.3632   3.8527   5.3956   8.4872   9.1147

          k =-0.2500 0.2500 0.9164 (  2382 PWs)   bands (ev):

   -10.7381 -10.6504 -10.6072 -10.5904 -10.5883 -10.5375 -10.4784 -10.4596
   -10.3823 -10.3544   3.7382   6.0504   7.1239   9.1088

          k = 0.5000 0.2500-0.4582 (  2378 PWs)   bands (ev):

   -10.7067 -10.6472 -10.6434 -10.5898 -10.5728 -10.5153 -10.4818 -10.4738
   -10.4566 -10.3919   2.0033   4.1407   9.3958  10.6287

          k = 0.2500 0.2500 0.0000 (  2370 PWs)   bands (ev):

   -10.7493 -10.7226 -10.6874 -10.6317 -10.5383 -10.4907 -10.4890 -10.4811
   -10.4380 -10.3439   0.2174   4.5874   9.5066  10.5380

          k = 0.5000-0.5000-1.8328 (  2366 PWs)   bands (ev):

   -10.7192 -10.7192 -10.6318 -10.6318 -10.5384 -10.5384 -10.4666 -10.4666
   -10.4275 -10.4275   1.9004   1.9004  11.4188  11.4188

          k = 0.0000 0.0000 0.9164 (  2367 PWs)   bands (ev):

   -10.7294 -10.6221 -10.6221 -10.6028 -10.5576 -10.5576 -10.5329 -10.4402
   -10.3847 -10.3385   3.2951   7.1424   7.9735   9.4594

          k = 0.7500 0.0000-0.4582 (  2384 PWs)   bands (ev):

   -10.6937 -10.6513 -10.5890 -10.5801 -10.5455 -10.5287 -10.5175 -10.4814
   -10.4742 -10.4179   3.0223   4.3592   7.2625   8.4578

          k = 0.5000 0.0000 0.0000 (  2359 PWs)   bands (ev):

   -10.7347 -10.7050 -10.6933 -10.6001 -10.5151 -10.5078 -10.5039 -10.4607
   -10.4590 -10.3891   0.7799   4.3538   7.0806  10.7931

          k = 0.7500-0.7500-1.8328 (  2372 PWs)   bands (ev):

   -10.7258 -10.7258 -10.5940 -10.5940 -10.5306 -10.5306 -10.4810 -10.4810
   -10.4521 -10.4521   2.4047   2.4047   7.9922   7.9922

          k = 0.5000-0.5000-0.9164 (  2376 PWs)   bands (ev):

   -10.7025 -10.7025 -10.6320 -10.6320 -10.5244 -10.5244 -10.4302 -10.4302
   -10.4030 -10.4030   4.8051   4.8051   7.2819   7.2819

          k = 0.0000 0.0000-1.8328 (  2366 PWs)   bands (ev):

   -10.7284 -10.7284 -10.5297 -10.5297 -10.5204 -10.5204 -10.5088 -10.5088
   -10.4958 -10.4958   3.2423   3.2423   6.0128   6.0128

     highest occupied level (ev):    11.4188

!    total energy              =    -325.56245652 Ry
     estimated scf accuracy    <       0.00000004 Ry

     The total energy is the sum of the following terms:
     one-electron contribution =    -107.29587491 Ry
     hartree contribution      =      74.46997847 Ry
     xc contribution           =     -95.22125686 Ry
     ewald contribution        =    -197.51530322 Ry

     convergence has been achieved in   5 iterations

     Writing all to output data dir ./beta-sn-scf/betatin.save/ :
     XML data file, charge density, pseudopotentials, collected wavefunctions

     init_run     :      0.38s CPU      0.42s WALL (       1 calls)
     electrons    :      0.19s CPU      0.24s WALL (       1 calls)

     Called by init_run:
     wfcinit      :      0.02s CPU      0.03s WALL (       1 calls)
     potinit      :      0.02s CPU      0.03s WALL (       1 calls)
     hinit0       :      0.33s CPU      0.33s WALL (       1 calls)

     Called by electrons:
     c_bands      :      0.12s CPU      0.13s WALL (       6 calls)
     sum_band     :      0.03s CPU      0.04s WALL (       6 calls)
     v_of_rho     :      0.03s CPU      0.03s WALL (       6 calls)
     newd         :      0.01s CPU      0.01s WALL (       6 calls)
     mix_rho      :      0.00s CPU      0.00s WALL (       6 calls)

     Called by c_bands:
     init_us_2    :      0.00s CPU      0.00s WALL (      26 calls)
     cegterg      :      0.10s CPU      0.11s WALL (      12 calls)

     Called by *egterg:
     cdiaghg      :      0.01s CPU      0.02s WALL (      46 calls)
     h_psi        :      0.09s CPU      0.10s WALL (      50 calls)
     s_psi        :      0.00s CPU      0.00s WALL (      50 calls)
     g_psi        :      0.00s CPU      0.00s WALL (      36 calls)

     Called by h_psi:
     h_psi:calbec :      0.01s CPU      0.01s WALL (      50 calls)
     vloc_psi     :      0.08s CPU      0.09s WALL (      50 calls)
     add_vuspsi   :      0.00s CPU      0.00s WALL (      50 calls)

     General routines
     calbec       :      0.01s CPU      0.01s WALL (      62 calls)
     fft          :      0.31s CPU      0.31s WALL (      67 calls)
     ffts         :      0.00s CPU      0.00s WALL (       6 calls)
     fftw         :      0.09s CPU      0.10s WALL (    1090 calls)

     Parallel routines

     PWSCF        :      0.86s CPU      1.10s WALL


   This run was terminated on:  16: 9:29   5Feb2026            

=------------------------------------------------------------------------------=
   JOB DONE.
=------------------------------------------------------------------------------=
