
     Program PWSCF v.7.3.1 starts on  5Feb2026 at 16:28:55 

     This program is part of the open-source Quantum ESPRESSO suite
     for quantum simulation of materials; please cite
         "P. Giannozzi et al., J. Phys.:Condens. Matter 21 395502 (2009);
         "P. Giannozzi et al., J. Phys.:Condens. Matter 29 465901 (2017);
         "P. Giannozzi et al., J. Chem. Phys. 152 154105 (2020);
          URL http://www.quantum-espresso.org", 
     in publications or presentations arising from this work. More details at
     http://www.quantum-espresso.org/quote

     Parallel version (MPI), running on   128 processors

     MPI processes distributed on     1 nodes
     241331 MiB available memory on the printing compute node when the environment starts

     Waiting for input...
     Reading input from standard input

     Current dimensions of program PWSCF are:
     Max number of different atomic species (ntypx) = 10
     Max number of k-points (npk) =  40000
     Max angular momentum in pseudopotentials (lmaxx) =  4

     K-points division:     npool     =       4
     R & G space division:  proc/nbgrp/npool/nimage =      32
     Subspace diagonalization in iterative solution of the eigenvalue problem:
     a serial algorithm will be used


     Parallelization info
     --------------------
     sticks:   dense  smooth     PW     G-vecs:    dense   smooth      PW
     Min         110     110     33                 3148     3148     518
     Max         111     111     34                 3151     3151     521
     Sum        3547    3547   1067               100797   100797   16617

     Using Slab Decomposition



     bravais-lattice index     =            7
     lattice parameter (alat)  =      11.0200  a.u.
     unit-cell volume          =     365.0809 (a.u.)^3
     number of atoms/cell      =            2
     number of atomic types    =            1
     number of electrons       =        28.00
     number of Kohn-Sham states=           14
     kinetic-energy cutoff     =     161.0000  Ry
     charge density cutoff     =     644.0000  Ry
     scf convergence threshold =      1.0E-07
     mixing beta               =       0.7000
     number of iterations used =            8  plain     mixing
     Exchange-correlation=  SLA  PW   GGX  GGC
                           (   1   4   2   2   0   0   0)

     celldm(1)=  11.020000  celldm(2)=   0.000000  celldm(3)=   0.545600
     celldm(4)=   0.000000  celldm(5)=   0.000000  celldm(6)=   0.000000

     crystal axes: (cart. coord. in units of alat)
               a(1) = (   0.500000  -0.500000   0.272800 )  
               a(2) = (   0.500000   0.500000   0.272800 )  
               a(3) = (  -0.500000  -0.500000   0.272800 )  

     reciprocal axes: (cart. coord. in units 2 pi/alat)
               b(1) = (  1.000000 -1.000000  0.000000 )  
               b(2) = (  0.000000  1.000000  1.832845 )  
               b(3) = ( -1.000000  0.000000  1.832845 )  


     PseudoPot. # 1 for Sn read from file:
     ./Sn.pw91-n-van.UPF
     MD5 check sum: a38d2a872edd1a4efd76c0a1a38f7031
     Pseudo is Ultrasoft + core correction, Zval = 14.0
     Generated by new atomic code, or converted to UPF format
     Using radial grid of  891 points,  6 beta functions with: 
                l(1) =   0
                l(2) =   0
                l(3) =   1
                l(4) =   1
                l(5) =   2
                l(6) =   2
     Q(r) pseudized with  8 coefficients,  rinner =    1.100   1.100   1.100
                                                       1.100   1.100

     atomic species   valence    mass     pseudopotential
     Sn               14.00   118.70000     Sn( 1.00)

     16 Sym. Ops., with inversion, found (12 have fractional translation)



   Cartesian axes

     site n.     atom                  positions (alat units)
         1        Sn     tau(   1) = (   0.0000000  -0.2500000   0.0682000  )
         2        Sn     tau(   2) = (   0.0000000   0.2500000  -0.0682000  )

     number of k points=    13
                       cart. coord. in units 2pi/alat
        k(    1) = (   0.0000000   0.0000000   0.0000000), wk =   0.0312500
        k(    2) = (  -0.2500000   0.0000000   0.4582111), wk =   0.2500000
        k(    3) = (   0.5000000   0.0000000  -0.9164223), wk =   0.1250000
        k(    4) = (  -0.2500000   0.2500000   0.9164223), wk =   0.2500000
        k(    5) = (   0.5000000   0.2500000  -0.4582111), wk =   0.5000000
        k(    6) = (   0.2500000   0.2500000   0.0000000), wk =   0.1250000
        k(    7) = (   0.5000000  -0.5000000  -1.8328446), wk =   0.0625000
        k(    8) = (   0.0000000   0.0000000   0.9164223), wk =   0.0625000
        k(    9) = (   0.7500000   0.0000000  -0.4582111), wk =   0.2500000
        k(   10) = (   0.5000000   0.0000000   0.0000000), wk =   0.1250000
        k(   11) = (   0.7500000  -0.7500000  -1.8328446), wk =   0.1250000
        k(   12) = (   0.5000000  -0.5000000  -0.9164223), wk =   0.0625000
        k(   13) = (   0.0000000   0.0000000  -1.8328446), wk =   0.0312500

     Dense  grid:   100797 G-vectors     FFT dimensions: (  72,  72,  72)

     Estimated max dynamical RAM per process >       7.34 MB

     Estimated total dynamical RAM >     866.05 MB

     Initial potential from superposition of free atoms

     starting charge      27.9964, renormalised to      28.0000
     Starting wfcs are   18 randomized atomic wfcs

     total cpu time spent up to now is        1.1 secs

     per-process dynamical memory:    13.0 Mb

     Self-consistent Calculation

     iteration #  1     ecut=   161.00 Ry     beta= 0.70
     Davidson diagonalization with overlap
     ethr =  1.00E-02,  avg # of iterations =  1.8

     Threshold (ethr) on eigenvalues was too large:
     Diagonalizing with lowered threshold

     Davidson diagonalization with overlap
     ethr =  2.33E-05,  avg # of iterations =  3.7

     total cpu time spent up to now is        1.4 secs

     total energy              =    -325.58255555 Ry
     estimated scf accuracy    <       0.00680407 Ry

     iteration #  2     ecut=   161.00 Ry     beta= 0.70
     Davidson diagonalization with overlap
     ethr =  2.43E-05,  avg # of iterations =  2.0

     total cpu time spent up to now is        1.5 secs

     total energy              =    -325.58393812 Ry
     estimated scf accuracy    <       0.00051323 Ry

     iteration #  3     ecut=   161.00 Ry     beta= 0.70
     Davidson diagonalization with overlap
     ethr =  1.83E-06,  avg # of iterations =  2.5

     total cpu time spent up to now is        1.6 secs

     total energy              =    -325.58404465 Ry
     estimated scf accuracy    <       0.00004001 Ry

     iteration #  4     ecut=   161.00 Ry     beta= 0.70
     Davidson diagonalization with overlap
     ethr =  1.43E-07,  avg # of iterations =  2.5

     total cpu time spent up to now is        1.8 secs

     total energy              =    -325.58404894 Ry
     estimated scf accuracy    <       0.00000024 Ry

     iteration #  5     ecut=   161.00 Ry     beta= 0.70
     Davidson diagonalization with overlap
     ethr =  8.72E-10,  avg # of iterations =  4.4

     total cpu time spent up to now is        1.9 secs

     End of self-consistent calculation

          k = 0.0000 0.0000 0.0000 ( 12549 PWs)   bands (ev):

   -10.8097 -10.7269 -10.6832 -10.6717 -10.5217 -10.5217 -10.5106 -10.5106
   -10.4187 -10.3065  -0.3472   7.1615   8.8397   8.8397

          k =-0.2500 0.0000 0.4582 ( 12600 PWs)   bands (ev):

   -10.7738 -10.6459 -10.6412 -10.6000 -10.5776 -10.5362 -10.5278 -10.5049
   -10.4397 -10.3410   0.8911   6.5841   9.0440  11.2832

          k = 0.5000 0.0000-0.9164 ( 12602 PWs)   bands (ev):

   -10.7345 -10.6640 -10.6472 -10.6078 -10.5738 -10.5707 -10.4721 -10.4248
   -10.4211 -10.3745   3.8534   5.3958   8.4876   9.1144

          k =-0.2500 0.2500 0.9164 ( 12604 PWs)   bands (ev):

   -10.7484 -10.6606 -10.6173 -10.6003 -10.5984 -10.5479 -10.4891 -10.4697
   -10.3933 -10.3655   3.7388   6.0511   7.1233   9.1084

          k = 0.5000 0.2500-0.4582 ( 12588 PWs)   bands (ev):

   -10.7171 -10.6576 -10.6539 -10.6000 -10.5828 -10.5256 -10.4920 -10.4843
   -10.4671 -10.4027   2.0035   4.1411   9.3955  10.6281

          k = 0.2500 0.2500 0.0000 ( 12577 PWs)   bands (ev):

   -10.7597 -10.7338 -10.6985 -10.6414 -10.5484 -10.5010 -10.4993 -10.4913
   -10.4480 -10.3551   0.2175   4.5879   9.5064  10.5378

          k = 0.5000-0.5000-1.8328 ( 12604 PWs)   bands (ev):

   -10.7302 -10.7302 -10.6423 -10.6423 -10.5484 -10.5484 -10.4770 -10.4770
   -10.4379 -10.4379   1.9007   1.9007  11.4183  11.4183

          k = 0.0000 0.0000 0.9164 ( 12608 PWs)   bands (ev):

   -10.7400 -10.6323 -10.6323 -10.6128 -10.5678 -10.5678 -10.5438 -10.4505
   -10.3957 -10.3499   3.2955   7.1433   7.9731   9.4589

          k = 0.7500 0.0000-0.4582 ( 12612 PWs)   bands (ev):

   -10.7043 -10.6620 -10.5993 -10.5900 -10.5555 -10.5388 -10.5279 -10.4913
   -10.4850 -10.4288   3.0227   4.3599   7.2617   8.4574

          k = 0.5000 0.0000 0.0000 ( 12580 PWs)   bands (ev):

   -10.7457 -10.7160 -10.7040 -10.6100 -10.5258 -10.5179 -10.5141 -10.4713
   -10.4690 -10.4000   0.7800   4.3544   7.0799  10.7926

          k = 0.7500-0.7500-1.8328 ( 12594 PWs)   bands (ev):

   -10.7367 -10.7367 -10.6045 -10.6045 -10.5406 -10.5406 -10.4912 -10.4912
   -10.4625 -10.4625   2.4050   2.4050   7.9917   7.9917

          k = 0.5000-0.5000-0.9164 ( 12624 PWs)   bands (ev):

   -10.7126 -10.7126 -10.6421 -10.6421 -10.5346 -10.5346 -10.4410 -10.4410
   -10.4139 -10.4139   4.8059   4.8059   7.2812   7.2812

          k = 0.0000 0.0000-1.8328 ( 12632 PWs)   bands (ev):

   -10.7395 -10.7395 -10.5408 -10.5408 -10.5304 -10.5304 -10.5188 -10.5188
   -10.5060 -10.5060   3.2428   3.2428   6.0120   6.0120

     highest occupied level (ev):    11.4183

!    total energy              =    -325.58404917 Ry
     estimated scf accuracy    <       0.00000001 Ry

     The total energy is the sum of the following terms:
     one-electron contribution =    -107.32236626 Ry
     hartree contribution      =      74.47588779 Ry
     xc contribution           =     -95.22226750 Ry
     ewald contribution        =    -197.51530320 Ry

     convergence has been achieved in   5 iterations

     Writing all to output data dir ./beta-sn-scf/betatin.save/ :
     XML data file, charge density, pseudopotentials, collected wavefunctions

     init_run     :      0.72s CPU      0.79s WALL (       1 calls)
     electrons    :      0.84s CPU      0.92s WALL (       1 calls)

     Called by init_run:
     wfcinit      :      0.04s CPU      0.06s WALL (       1 calls)
     potinit      :      0.02s CPU      0.03s WALL (       1 calls)
     hinit0       :      0.58s CPU      0.60s WALL (       1 calls)

     Called by electrons:
     c_bands      :      0.58s CPU      0.60s WALL (       6 calls)
     sum_band     :      0.14s CPU      0.16s WALL (       6 calls)
     v_of_rho     :      0.08s CPU      0.08s WALL (       6 calls)
     newd         :      0.04s CPU      0.04s WALL (       6 calls)
     mix_rho      :      0.01s CPU      0.01s WALL (       6 calls)

     Called by c_bands:
     init_us_2    :      0.01s CPU      0.01s WALL (      52 calls)
     cegterg      :      0.54s CPU      0.55s WALL (      24 calls)

     Called by *egterg:
     cdiaghg      :      0.03s CPU      0.03s WALL (      97 calls)
     h_psi        :      0.50s CPU      0.52s WALL (     105 calls)
     s_psi        :      0.01s CPU      0.01s WALL (     105 calls)
     g_psi        :      0.00s CPU      0.00s WALL (      77 calls)

     Called by h_psi:
     h_psi:calbec :      0.01s CPU      0.02s WALL (     105 calls)
     vloc_psi     :      0.48s CPU      0.49s WALL (     105 calls)
     add_vuspsi   :      0.01s CPU      0.01s WALL (     105 calls)

     General routines
     calbec       :      0.02s CPU      0.02s WALL (     129 calls)
     fft          :      0.58s CPU      0.59s WALL (      67 calls)
     ffts         :      0.00s CPU      0.00s WALL (       6 calls)
     fftw         :      0.50s CPU      0.53s WALL (    2206 calls)

     Parallel routines

     PWSCF        :      1.84s CPU      2.19s WALL


   This run was terminated on:  16:28:57   5Feb2026            

=------------------------------------------------------------------------------=
   JOB DONE.
=------------------------------------------------------------------------------=
