
     Program PWSCF v.7.3.1 starts on  5Feb2026 at 16:10:23 

     This program is part of the open-source Quantum ESPRESSO suite
     for quantum simulation of materials; please cite
         "P. Giannozzi et al., J. Phys.:Condens. Matter 21 395502 (2009);
         "P. Giannozzi et al., J. Phys.:Condens. Matter 29 465901 (2017);
         "P. Giannozzi et al., J. Chem. Phys. 152 154105 (2020);
          URL http://www.quantum-espresso.org", 
     in publications or presentations arising from this work. More details at
     http://www.quantum-espresso.org/quote

     Parallel version (MPI), running on   128 processors

     MPI processes distributed on     1 nodes
     241392 MiB available memory on the printing compute node when the environment starts

     Waiting for input...
     Reading input from standard input

     Current dimensions of program PWSCF are:
     Max number of different atomic species (ntypx) = 10
     Max number of k-points (npk) =  40000
     Max angular momentum in pseudopotentials (lmaxx) =  4

     K-points division:     npool     =       8
     R & G space division:  proc/nbgrp/npool/nimage =      16
     Subspace diagonalization in iterative solution of the eigenvalue problem:
     a serial algorithm will be used


     Parallelization info
     --------------------
     sticks:   dense  smooth     PW     G-vecs:    dense   smooth      PW
     Min          81      81     26                 1393     1393     268
     Max          82      82     27                 1395     1395     271
     Sum        1297    1297    427                22303    22303    4321

     Using Slab Decomposition



     bravais-lattice index     =            7
     lattice parameter (alat)  =      11.0200  a.u.
     unit-cell volume          =     365.0809 (a.u.)^3
     number of atoms/cell      =            2
     number of atomic types    =            1
     number of electrons       =        28.00
     number of Kohn-Sham states=           14
     kinetic-energy cutoff     =      59.0000  Ry
     charge density cutoff     =     236.0000  Ry
     scf convergence threshold =      1.0E-07
     mixing beta               =       0.7000
     number of iterations used =            8  plain     mixing
     Exchange-correlation=  SLA  PW   GGX  GGC
                           (   1   4   2   2   0   0   0)

     celldm(1)=  11.020000  celldm(2)=   0.000000  celldm(3)=   0.545600
     celldm(4)=   0.000000  celldm(5)=   0.000000  celldm(6)=   0.000000

     crystal axes: (cart. coord. in units of alat)
               a(1) = (   0.500000  -0.500000   0.272800 )  
               a(2) = (   0.500000   0.500000   0.272800 )  
               a(3) = (  -0.500000  -0.500000   0.272800 )  

     reciprocal axes: (cart. coord. in units 2 pi/alat)
               b(1) = (  1.000000 -1.000000  0.000000 )  
               b(2) = (  0.000000  1.000000  1.832845 )  
               b(3) = ( -1.000000  0.000000  1.832845 )  


     PseudoPot. # 1 for Sn read from file:
     ./Sn.pw91-n-van.UPF
     MD5 check sum: a38d2a872edd1a4efd76c0a1a38f7031
     Pseudo is Ultrasoft + core correction, Zval = 14.0
     Generated by new atomic code, or converted to UPF format
     Using radial grid of  891 points,  6 beta functions with: 
                l(1) =   0
                l(2) =   0
                l(3) =   1
                l(4) =   1
                l(5) =   2
                l(6) =   2
     Q(r) pseudized with  8 coefficients,  rinner =    1.100   1.100   1.100
                                                       1.100   1.100

     atomic species   valence    mass     pseudopotential
     Sn               14.00   118.70000     Sn( 1.00)

     16 Sym. Ops., with inversion, found (12 have fractional translation)



   Cartesian axes

     site n.     atom                  positions (alat units)
         1        Sn     tau(   1) = (   0.0000000  -0.2500000   0.0682000  )
         2        Sn     tau(   2) = (   0.0000000   0.2500000  -0.0682000  )

     number of k points=    13
                       cart. coord. in units 2pi/alat
        k(    1) = (   0.0000000   0.0000000   0.0000000), wk =   0.0312500
        k(    2) = (  -0.2500000   0.0000000   0.4582111), wk =   0.2500000
        k(    3) = (   0.5000000   0.0000000  -0.9164223), wk =   0.1250000
        k(    4) = (  -0.2500000   0.2500000   0.9164223), wk =   0.2500000
        k(    5) = (   0.5000000   0.2500000  -0.4582111), wk =   0.5000000
        k(    6) = (   0.2500000   0.2500000   0.0000000), wk =   0.1250000
        k(    7) = (   0.5000000  -0.5000000  -1.8328446), wk =   0.0625000
        k(    8) = (   0.0000000   0.0000000   0.9164223), wk =   0.0625000
        k(    9) = (   0.7500000   0.0000000  -0.4582111), wk =   0.2500000
        k(   10) = (   0.5000000   0.0000000   0.0000000), wk =   0.1250000
        k(   11) = (   0.7500000  -0.7500000  -1.8328446), wk =   0.1250000
        k(   12) = (   0.5000000  -0.5000000  -0.9164223), wk =   0.0625000
        k(   13) = (   0.0000000   0.0000000  -1.8328446), wk =   0.0312500

     Dense  grid:    22303 G-vectors     FFT dimensions: (  48,  48,  48)

     Estimated max dynamical RAM per process >       3.01 MB

     Estimated total dynamical RAM >     347.52 MB

     Initial potential from superposition of free atoms

     starting charge      27.9964, renormalised to      28.0000
     Starting wfcs are   18 randomized atomic wfcs

     total cpu time spent up to now is        0.8 secs

     per-process dynamical memory:    10.8 Mb

     Self-consistent Calculation

     iteration #  1     ecut=    59.00 Ry     beta= 0.70
     Davidson diagonalization with overlap
     ethr =  1.00E-02,  avg # of iterations =  1.8

     Threshold (ethr) on eigenvalues was too large:
     Diagonalizing with lowered threshold

     Davidson diagonalization with overlap
     ethr =  2.42E-05,  avg # of iterations =  3.9

     total cpu time spent up to now is        0.9 secs

     total energy              =    -325.56598432 Ry
     estimated scf accuracy    <       0.00695222 Ry

     iteration #  2     ecut=    59.00 Ry     beta= 0.70
     Davidson diagonalization with overlap
     ethr =  2.48E-05,  avg # of iterations =  2.0

     total cpu time spent up to now is        0.9 secs

     total energy              =    -325.56696768 Ry
     estimated scf accuracy    <       0.00056278 Ry

     iteration #  3     ecut=    59.00 Ry     beta= 0.70
     Davidson diagonalization with overlap
     ethr =  2.01E-06,  avg # of iterations =  2.4

     total cpu time spent up to now is        1.0 secs

     total energy              =    -325.56703599 Ry
     estimated scf accuracy    <       0.00004359 Ry

     iteration #  4     ecut=    59.00 Ry     beta= 0.70
     Davidson diagonalization with overlap
     ethr =  1.56E-07,  avg # of iterations =  2.7

     total cpu time spent up to now is        1.0 secs

     total energy              =    -325.56704106 Ry
     estimated scf accuracy    <       0.00000024 Ry

     iteration #  5     ecut=    59.00 Ry     beta= 0.70
     Davidson diagonalization with overlap
     ethr =  8.43E-10,  avg # of iterations =  4.1

     total cpu time spent up to now is        1.0 secs

     End of self-consistent calculation

          k = 0.0000 0.0000 0.0000 (  2787 PWs)   bands (ev):

   -10.7996 -10.7178 -10.6750 -10.6627 -10.5131 -10.5131 -10.5018 -10.5018
   -10.4099 -10.2968  -0.3462   7.1612   8.8409   8.8409

          k =-0.2500 0.0000 0.4582 (  2801 PWs)   bands (ev):

   -10.7641 -10.6378 -10.6320 -10.5911 -10.5691 -10.5277 -10.5190 -10.4959
   -10.4312 -10.3314   0.8920   6.5841   9.0455  11.2841

          k = 0.5000 0.0000-0.9164 (  2794 PWs)   bands (ev):

   -10.7249 -10.6553 -10.6390 -10.5988 -10.5654 -10.5620 -10.4637 -10.4154
   -10.4117 -10.3649   3.8539   5.3967   8.4881   9.1153

          k =-0.2500 0.2500 0.9164 (  2792 PWs)   bands (ev):

   -10.7389 -10.6518 -10.6086 -10.5918 -10.5899 -10.5392 -10.4798 -10.4611
   -10.3839 -10.3560   3.7394   6.0515   7.1248   9.1095

          k = 0.5000 0.2500-0.4582 (  2787 PWs)   bands (ev):

   -10.7075 -10.6485 -10.6448 -10.5911 -10.5744 -10.5169 -10.4835 -10.4755
   -10.4581 -10.3933   2.0043   4.1417   9.3969  10.6296

          k = 0.2500 0.2500 0.0000 (  2803 PWs)   bands (ev):

   -10.7498 -10.7249 -10.6896 -10.6332 -10.5395 -10.4923 -10.4907 -10.4826
   -10.4394 -10.3455   0.2184   4.5884   9.5076  10.5391

          k = 0.5000-0.5000-1.8328 (  2780 PWs)   bands (ev):

   -10.7212 -10.7212 -10.6327 -10.6327 -10.5400 -10.5400 -10.4682 -10.4682
   -10.4286 -10.4286   1.9015   1.9015  11.4198  11.4198

          k = 0.0000 0.0000 0.9164 (  2783 PWs)   bands (ev):

   -10.7301 -10.6238 -10.6238 -10.6043 -10.5589 -10.5589 -10.5344 -10.4420
   -10.3861 -10.3404   3.2962   7.1435   7.9742   9.4605

          k = 0.7500 0.0000-0.4582 (  2808 PWs)   bands (ev):

   -10.6946 -10.6527 -10.5906 -10.5816 -10.5471 -10.5303 -10.5192 -10.4830
   -10.4759 -10.4194   3.0233   4.3602   7.2638   8.4590

          k = 0.5000 0.0000 0.0000 (  2809 PWs)   bands (ev):

   -10.7363 -10.7070 -10.6946 -10.6017 -10.5170 -10.5093 -10.5055 -10.4626
   -10.4607 -10.3907   0.7809   4.3547   7.0818  10.7943

          k = 0.7500-0.7500-1.8328 (  2790 PWs)   bands (ev):

   -10.7274 -10.7274 -10.5953 -10.5953 -10.5322 -10.5322 -10.4825 -10.4825
   -10.4534 -10.4534   2.4057   2.4057   7.9934   7.9934

          k = 0.5000-0.5000-0.9164 (  2776 PWs)   bands (ev):

   -10.7034 -10.7034 -10.6335 -10.6335 -10.5259 -10.5259 -10.4318 -10.4318
   -10.4043 -10.4043   4.8063   4.8063   7.2828   7.2828

          k = 0.0000 0.0000-1.8328 (  2780 PWs)   bands (ev):

   -10.7301 -10.7301 -10.5312 -10.5312 -10.5220 -10.5220 -10.5099 -10.5099
   -10.4971 -10.4971   3.2432   3.2432   6.0141   6.0141

     highest occupied level (ev):    11.4198

!    total energy              =    -325.56704139 Ry
     estimated scf accuracy    <          6.0E-09 Ry

     The total energy is the sum of the following terms:
     one-electron contribution =    -107.30155616 Ry
     hartree contribution      =      74.47189888 Ry
     xc contribution           =     -95.22208089 Ry
     ewald contribution        =    -197.51530323 Ry

     convergence has been achieved in   5 iterations

     Writing all to output data dir ./beta-sn-scf/betatin.save/ :
     XML data file, charge density, pseudopotentials, collected wavefunctions

     init_run     :      0.42s CPU      0.48s WALL (       1 calls)
     electrons    :      0.23s CPU      0.30s WALL (       1 calls)

     Called by init_run:
     wfcinit      :      0.02s CPU      0.02s WALL (       1 calls)
     potinit      :      0.02s CPU      0.03s WALL (       1 calls)
     hinit0       :      0.38s CPU      0.39s WALL (       1 calls)

     Called by electrons:
     c_bands      :      0.14s CPU      0.15s WALL (       6 calls)
     sum_band     :      0.03s CPU      0.04s WALL (       6 calls)
     v_of_rho     :      0.03s CPU      0.04s WALL (       6 calls)
     newd         :      0.01s CPU      0.01s WALL (       6 calls)
     mix_rho      :      0.00s CPU      0.00s WALL (       6 calls)

     Called by c_bands:
     init_us_2    :      0.00s CPU      0.00s WALL (      26 calls)
     cegterg      :      0.12s CPU      0.13s WALL (      12 calls)

     Called by *egterg:
     cdiaghg      :      0.02s CPU      0.02s WALL (      51 calls)
     h_psi        :      0.10s CPU      0.12s WALL (      55 calls)
     s_psi        :      0.00s CPU      0.00s WALL (      55 calls)
     g_psi        :      0.00s CPU      0.00s WALL (      41 calls)

     Called by h_psi:
     h_psi:calbec :      0.01s CPU      0.01s WALL (      55 calls)
     vloc_psi     :      0.09s CPU      0.11s WALL (      55 calls)
     add_vuspsi   :      0.00s CPU      0.00s WALL (      55 calls)

     General routines
     calbec       :      0.01s CPU      0.01s WALL (      67 calls)
     fft          :      0.36s CPU      0.37s WALL (      67 calls)
     ffts         :      0.00s CPU      0.00s WALL (       6 calls)
     fftw         :      0.10s CPU      0.11s WALL (    1110 calls)

     Parallel routines

     PWSCF        :      0.88s CPU      1.17s WALL


   This run was terminated on:  16:10:24   5Feb2026            

=------------------------------------------------------------------------------=
   JOB DONE.
=------------------------------------------------------------------------------=
