
     Program PWSCF v.7.3.1 starts on  5Feb2026 at 16:14:29 

     This program is part of the open-source Quantum ESPRESSO suite
     for quantum simulation of materials; please cite
         "P. Giannozzi et al., J. Phys.:Condens. Matter 21 395502 (2009);
         "P. Giannozzi et al., J. Phys.:Condens. Matter 29 465901 (2017);
         "P. Giannozzi et al., J. Chem. Phys. 152 154105 (2020);
          URL http://www.quantum-espresso.org", 
     in publications or presentations arising from this work. More details at
     http://www.quantum-espresso.org/quote

     Parallel version (MPI), running on   128 processors

     MPI processes distributed on     1 nodes
     241302 MiB available memory on the printing compute node when the environment starts

     Waiting for input...
     Reading input from standard input

     Current dimensions of program PWSCF are:
     Max number of different atomic species (ntypx) = 10
     Max number of k-points (npk) =  40000
     Max angular momentum in pseudopotentials (lmaxx) =  4

     K-points division:     npool     =       8
     R & G space division:  proc/nbgrp/npool/nimage =      16
     Subspace diagonalization in iterative solution of the eigenvalue problem:
     a serial algorithm will be used


     Parallelization info
     --------------------
     sticks:   dense  smooth     PW     G-vecs:    dense   smooth      PW
     Min         114     114     36                 2333     2333     422
     Max         115     115     37                 2335     2335     423
     Sum        1831    1831    583                37349    37349    6757

     Using Slab Decomposition



     bravais-lattice index     =            7
     lattice parameter (alat)  =      11.0200  a.u.
     unit-cell volume          =     365.0809 (a.u.)^3
     number of atoms/cell      =            2
     number of atomic types    =            1
     number of electrons       =        28.00
     number of Kohn-Sham states=           14
     kinetic-energy cutoff     =      83.0000  Ry
     charge density cutoff     =     332.0000  Ry
     scf convergence threshold =      1.0E-07
     mixing beta               =       0.7000
     number of iterations used =            8  plain     mixing
     Exchange-correlation=  SLA  PW   GGX  GGC
                           (   1   4   2   2   0   0   0)

     celldm(1)=  11.020000  celldm(2)=   0.000000  celldm(3)=   0.545600
     celldm(4)=   0.000000  celldm(5)=   0.000000  celldm(6)=   0.000000

     crystal axes: (cart. coord. in units of alat)
               a(1) = (   0.500000  -0.500000   0.272800 )  
               a(2) = (   0.500000   0.500000   0.272800 )  
               a(3) = (  -0.500000  -0.500000   0.272800 )  

     reciprocal axes: (cart. coord. in units 2 pi/alat)
               b(1) = (  1.000000 -1.000000  0.000000 )  
               b(2) = (  0.000000  1.000000  1.832845 )  
               b(3) = ( -1.000000  0.000000  1.832845 )  


     PseudoPot. # 1 for Sn read from file:
     ./Sn.pw91-n-van.UPF
     MD5 check sum: a38d2a872edd1a4efd76c0a1a38f7031
     Pseudo is Ultrasoft + core correction, Zval = 14.0
     Generated by new atomic code, or converted to UPF format
     Using radial grid of  891 points,  6 beta functions with: 
                l(1) =   0
                l(2) =   0
                l(3) =   1
                l(4) =   1
                l(5) =   2
                l(6) =   2
     Q(r) pseudized with  8 coefficients,  rinner =    1.100   1.100   1.100
                                                       1.100   1.100

     atomic species   valence    mass     pseudopotential
     Sn               14.00   118.70000     Sn( 1.00)

     16 Sym. Ops., with inversion, found (12 have fractional translation)



   Cartesian axes

     site n.     atom                  positions (alat units)
         1        Sn     tau(   1) = (   0.0000000  -0.2500000   0.0682000  )
         2        Sn     tau(   2) = (   0.0000000   0.2500000  -0.0682000  )

     number of k points=    13
                       cart. coord. in units 2pi/alat
        k(    1) = (   0.0000000   0.0000000   0.0000000), wk =   0.0312500
        k(    2) = (  -0.2500000   0.0000000   0.4582111), wk =   0.2500000
        k(    3) = (   0.5000000   0.0000000  -0.9164223), wk =   0.1250000
        k(    4) = (  -0.2500000   0.2500000   0.9164223), wk =   0.2500000
        k(    5) = (   0.5000000   0.2500000  -0.4582111), wk =   0.5000000
        k(    6) = (   0.2500000   0.2500000   0.0000000), wk =   0.1250000
        k(    7) = (   0.5000000  -0.5000000  -1.8328446), wk =   0.0625000
        k(    8) = (   0.0000000   0.0000000   0.9164223), wk =   0.0625000
        k(    9) = (   0.7500000   0.0000000  -0.4582111), wk =   0.2500000
        k(   10) = (   0.5000000   0.0000000   0.0000000), wk =   0.1250000
        k(   11) = (   0.7500000  -0.7500000  -1.8328446), wk =   0.1250000
        k(   12) = (   0.5000000  -0.5000000  -0.9164223), wk =   0.0625000
        k(   13) = (   0.0000000   0.0000000  -1.8328446), wk =   0.0312500

     Dense  grid:    37349 G-vectors     FFT dimensions: (  50,  50,  50)

     Estimated max dynamical RAM per process >       4.33 MB

     Estimated total dynamical RAM >     490.70 MB

     Initial potential from superposition of free atoms

     starting charge      27.9964, renormalised to      28.0000
     Starting wfcs are   18 randomized atomic wfcs

     total cpu time spent up to now is        0.6 secs

     per-process dynamical memory:    12.0 Mb

     Self-consistent Calculation

     iteration #  1     ecut=    83.00 Ry     beta= 0.70
     Davidson diagonalization with overlap
     ethr =  1.00E-02,  avg # of iterations =  1.8

     Threshold (ethr) on eigenvalues was too large:
     Diagonalizing with lowered threshold

     Davidson diagonalization with overlap
     ethr =  2.42E-05,  avg # of iterations =  3.9

     total cpu time spent up to now is        0.7 secs

     total energy              =    -325.56979858 Ry
     estimated scf accuracy    <       0.00693871 Ry

     iteration #  2     ecut=    83.00 Ry     beta= 0.70
     Davidson diagonalization with overlap
     ethr =  2.48E-05,  avg # of iterations =  2.0

     total cpu time spent up to now is        0.8 secs

     total energy              =    -325.57076837 Ry
     estimated scf accuracy    <       0.00056160 Ry

     iteration #  3     ecut=    83.00 Ry     beta= 0.70
     Davidson diagonalization with overlap
     ethr =  2.01E-06,  avg # of iterations =  2.2

     total cpu time spent up to now is        0.9 secs

     total energy              =    -325.57083275 Ry
     estimated scf accuracy    <       0.00004220 Ry

     iteration #  4     ecut=    83.00 Ry     beta= 0.70
     Davidson diagonalization with overlap
     ethr =  1.51E-07,  avg # of iterations =  2.8

     total cpu time spent up to now is        0.9 secs

     total energy              =    -325.57083867 Ry
     estimated scf accuracy    <       0.00000048 Ry

     iteration #  5     ecut=    83.00 Ry     beta= 0.70
     Davidson diagonalization with overlap
     ethr =  1.72E-09,  avg # of iterations =  3.6

     total cpu time spent up to now is        1.0 secs

     End of self-consistent calculation

          k = 0.0000 0.0000 0.0000 (  4681 PWs)   bands (ev):

   -10.8033 -10.7207 -10.6776 -10.6654 -10.5159 -10.5159 -10.5046 -10.5046
   -10.4128 -10.2996  -0.3469   7.1614   8.8401   8.8401

          k =-0.2500 0.0000 0.4582 (  4652 PWs)   bands (ev):

   -10.7674 -10.6403 -10.6349 -10.5938 -10.5716 -10.5303 -10.5217 -10.4985
   -10.4339 -10.3342   0.8913   6.5840   9.0445  11.2835

          k = 0.5000 0.0000-0.9164 (  4666 PWs)   bands (ev):

   -10.7281 -10.6580 -10.6415 -10.6015 -10.5681 -10.5648 -10.4663 -10.4183
   -10.4146 -10.3678   3.8535   5.3960   8.4878   9.1147

          k =-0.2500 0.2500 0.9164 (  4653 PWs)   bands (ev):

   -10.7421 -10.6546 -10.6113 -10.5945 -10.5925 -10.5419 -10.4827 -10.4638
   -10.3867 -10.3587   3.7389   6.0512   7.1238   9.1088

          k = 0.5000 0.2500-0.4582 (  4662 PWs)   bands (ev):

   -10.7108 -10.6514 -10.6478 -10.5940 -10.5770 -10.5196 -10.4861 -10.4782
   -10.4609 -10.3962   2.0037   4.1413   9.3960  10.6287

          k = 0.2500 0.2500 0.0000 (  4663 PWs)   bands (ev):

   -10.7533 -10.7275 -10.6922 -10.6358 -10.5423 -10.4950 -10.4933 -10.4852
   -10.4422 -10.3483   0.2177   4.5880   9.5068  10.5383

          k = 0.5000-0.5000-1.8328 (  4666 PWs)   bands (ev):

   -10.7239 -10.7239 -10.6360 -10.6360 -10.5426 -10.5426 -10.4710 -10.4710
   -10.4316 -10.4316   1.9009   1.9009  11.4189  11.4189

          k = 0.0000 0.0000 0.9164 (  4681 PWs)   bands (ev):

   -10.7335 -10.6265 -10.6265 -10.6072 -10.5618 -10.5618 -10.5373 -10.4447
   -10.3891 -10.3431   3.2957   7.1433   7.9736   9.4594

          k = 0.7500 0.0000-0.4582 (  4671 PWs)   bands (ev):

   -10.6979 -10.6556 -10.5933 -10.5842 -10.5497 -10.5329 -10.5217 -10.4856
   -10.4785 -10.4222   3.0228   4.3599   7.2625   8.4579

          k = 0.5000 0.0000 0.0000 (  4648 PWs)   bands (ev):

   -10.7392 -10.7097 -10.6977 -10.6043 -10.5196 -10.5120 -10.5081 -10.4651
   -10.4632 -10.3933   0.7803   4.3545   7.0805  10.7932

          k = 0.7500-0.7500-1.8328 (  4660 PWs)   bands (ev):

   -10.7303 -10.7303 -10.5982 -10.5982 -10.5349 -10.5349 -10.4852 -10.4852
   -10.4563 -10.4563   2.4052   2.4052   7.9923   7.9923

          k = 0.5000-0.5000-0.9164 (  4692 PWs)   bands (ev):

   -10.7066 -10.7066 -10.6362 -10.6362 -10.5289 -10.5289 -10.4346 -10.4346
   -10.4074 -10.4074   4.8059   4.8059   7.2818   7.2818

          k = 0.0000 0.0000-1.8328 (  4672 PWs)   bands (ev):

   -10.7331 -10.7331 -10.5341 -10.5341 -10.5247 -10.5247 -10.5128 -10.5128
   -10.5000 -10.5000   3.2429   3.2429   6.0127   6.0127

     highest occupied level (ev):    11.4189

!    total energy              =    -325.57083897 Ry
     estimated scf accuracy    <       0.00000001 Ry

     The total energy is the sum of the following terms:
     one-electron contribution =    -107.30579214 Ry
     hartree contribution      =      74.47171136 Ry
     xc contribution           =     -95.22145500 Ry
     ewald contribution        =    -197.51530320 Ry

     convergence has been achieved in   5 iterations

     Writing all to output data dir ./beta-sn-scf/betatin.save/ :
     XML data file, charge density, pseudopotentials, collected wavefunctions

     init_run     :      0.28s CPU      0.33s WALL (       1 calls)
     electrons    :      0.33s CPU      0.39s WALL (       1 calls)

     Called by init_run:
     wfcinit      :      0.03s CPU      0.03s WALL (       1 calls)
     potinit      :      0.03s CPU      0.03s WALL (       1 calls)
     hinit0       :      0.20s CPU      0.23s WALL (       1 calls)

     Called by electrons:
     c_bands      :      0.20s CPU      0.22s WALL (       6 calls)
     sum_band     :      0.05s CPU      0.06s WALL (       6 calls)
     v_of_rho     :      0.06s CPU      0.06s WALL (       6 calls)
     newd         :      0.01s CPU      0.02s WALL (       6 calls)
     mix_rho      :      0.00s CPU      0.00s WALL (       6 calls)

     Called by c_bands:
     init_us_2    :      0.00s CPU      0.01s WALL (      26 calls)
     cegterg      :      0.18s CPU      0.19s WALL (      12 calls)

     Called by *egterg:
     cdiaghg      :      0.02s CPU      0.02s WALL (      51 calls)
     h_psi        :      0.17s CPU      0.18s WALL (      55 calls)
     s_psi        :      0.00s CPU      0.00s WALL (      55 calls)
     g_psi        :      0.00s CPU      0.00s WALL (      41 calls)

     Called by h_psi:
     h_psi:calbec :      0.01s CPU      0.01s WALL (      55 calls)
     vloc_psi     :      0.16s CPU      0.16s WALL (      55 calls)
     add_vuspsi   :      0.00s CPU      0.00s WALL (      55 calls)

     General routines
     calbec       :      0.01s CPU      0.01s WALL (      67 calls)
     fft          :      0.19s CPU      0.20s WALL (      67 calls)
     ffts         :      0.00s CPU      0.00s WALL (       6 calls)
     fftw         :      0.16s CPU      0.18s WALL (    1096 calls)

     Parallel routines

     PWSCF        :      0.81s CPU      1.09s WALL


   This run was terminated on:  16:14:30   5Feb2026            

=------------------------------------------------------------------------------=
   JOB DONE.
=------------------------------------------------------------------------------=
