
     Program PWSCF v.7.3.1 starts on  5Feb2026 at 16:35:46 

     This program is part of the open-source Quantum ESPRESSO suite
     for quantum simulation of materials; please cite
         "P. Giannozzi et al., J. Phys.:Condens. Matter 21 395502 (2009);
         "P. Giannozzi et al., J. Phys.:Condens. Matter 29 465901 (2017);
         "P. Giannozzi et al., J. Chem. Phys. 152 154105 (2020);
          URL http://www.quantum-espresso.org", 
     in publications or presentations arising from this work. More details at
     http://www.quantum-espresso.org/quote

     Parallel version (MPI), running on   128 processors

     MPI processes distributed on     1 nodes
     241310 MiB available memory on the printing compute node when the environment starts

     Waiting for input...
     Reading input from standard input

     Current dimensions of program PWSCF are:
     Max number of different atomic species (ntypx) = 10
     Max number of k-points (npk) =  40000
     Max angular momentum in pseudopotentials (lmaxx) =  4

     K-points division:     npool     =       4
     R & G space division:  proc/nbgrp/npool/nimage =      32
     Subspace diagonalization in iterative solution of the eigenvalue problem:
     a serial algorithm will be used


     Parallelization info
     --------------------
     sticks:   dense  smooth     PW     G-vecs:    dense   smooth      PW
     Min         132     132     39                 4128     4128     663
     Max         133     133     40                 4131     4131     665
     Sum        4235    4235   1257               132131   132131   21243

     Using Slab Decomposition



     bravais-lattice index     =            7
     lattice parameter (alat)  =      11.0200  a.u.
     unit-cell volume          =     365.0809 (a.u.)^3
     number of atoms/cell      =            2
     number of atomic types    =            1
     number of electrons       =        28.00
     number of Kohn-Sham states=           14
     kinetic-energy cutoff     =     193.0000  Ry
     charge density cutoff     =     772.0000  Ry
     scf convergence threshold =      1.0E-07
     mixing beta               =       0.7000
     number of iterations used =            8  plain     mixing
     Exchange-correlation=  SLA  PW   GGX  GGC
                           (   1   4   2   2   0   0   0)

     celldm(1)=  11.020000  celldm(2)=   0.000000  celldm(3)=   0.545600
     celldm(4)=   0.000000  celldm(5)=   0.000000  celldm(6)=   0.000000

     crystal axes: (cart. coord. in units of alat)
               a(1) = (   0.500000  -0.500000   0.272800 )  
               a(2) = (   0.500000   0.500000   0.272800 )  
               a(3) = (  -0.500000  -0.500000   0.272800 )  

     reciprocal axes: (cart. coord. in units 2 pi/alat)
               b(1) = (  1.000000 -1.000000  0.000000 )  
               b(2) = (  0.000000  1.000000  1.832845 )  
               b(3) = ( -1.000000  0.000000  1.832845 )  


     PseudoPot. # 1 for Sn read from file:
     ./Sn.pw91-n-van.UPF
     MD5 check sum: a38d2a872edd1a4efd76c0a1a38f7031
     Pseudo is Ultrasoft + core correction, Zval = 14.0
     Generated by new atomic code, or converted to UPF format
     Using radial grid of  891 points,  6 beta functions with: 
                l(1) =   0
                l(2) =   0
                l(3) =   1
                l(4) =   1
                l(5) =   2
                l(6) =   2
     Q(r) pseudized with  8 coefficients,  rinner =    1.100   1.100   1.100
                                                       1.100   1.100

     atomic species   valence    mass     pseudopotential
     Sn               14.00   118.70000     Sn( 1.00)

     16 Sym. Ops., with inversion, found (12 have fractional translation)



   Cartesian axes

     site n.     atom                  positions (alat units)
         1        Sn     tau(   1) = (   0.0000000  -0.2500000   0.0682000  )
         2        Sn     tau(   2) = (   0.0000000   0.2500000  -0.0682000  )

     number of k points=    13
                       cart. coord. in units 2pi/alat
        k(    1) = (   0.0000000   0.0000000   0.0000000), wk =   0.0312500
        k(    2) = (  -0.2500000   0.0000000   0.4582111), wk =   0.2500000
        k(    3) = (   0.5000000   0.0000000  -0.9164223), wk =   0.1250000
        k(    4) = (  -0.2500000   0.2500000   0.9164223), wk =   0.2500000
        k(    5) = (   0.5000000   0.2500000  -0.4582111), wk =   0.5000000
        k(    6) = (   0.2500000   0.2500000   0.0000000), wk =   0.1250000
        k(    7) = (   0.5000000  -0.5000000  -1.8328446), wk =   0.0625000
        k(    8) = (   0.0000000   0.0000000   0.9164223), wk =   0.0625000
        k(    9) = (   0.7500000   0.0000000  -0.4582111), wk =   0.2500000
        k(   10) = (   0.5000000   0.0000000   0.0000000), wk =   0.1250000
        k(   11) = (   0.7500000  -0.7500000  -1.8328446), wk =   0.1250000
        k(   12) = (   0.5000000  -0.5000000  -0.9164223), wk =   0.0625000
        k(   13) = (   0.0000000   0.0000000  -1.8328446), wk =   0.0312500

     Dense  grid:   132131 G-vectors     FFT dimensions: (  80,  80,  80)

     Estimated max dynamical RAM per process >       9.11 MB

     Estimated total dynamical RAM >       1.04 GB

     Initial potential from superposition of free atoms

     starting charge      27.9964, renormalised to      28.0000
     Starting wfcs are   18 randomized atomic wfcs

     total cpu time spent up to now is        1.1 secs

     per-process dynamical memory:    13.9 Mb

     Self-consistent Calculation

     iteration #  1     ecut=   193.00 Ry     beta= 0.70
     Davidson diagonalization with overlap
     ethr =  1.00E-02,  avg # of iterations =  2.0

     Threshold (ethr) on eigenvalues was too large:
     Diagonalizing with lowered threshold

     Davidson diagonalization with overlap
     ethr =  2.29E-05,  avg # of iterations =  3.7

     total cpu time spent up to now is        1.5 secs

     total energy              =    -325.58606474 Ry
     estimated scf accuracy    <       0.00679915 Ry

     iteration #  2     ecut=   193.00 Ry     beta= 0.70
     Davidson diagonalization with overlap
     ethr =  2.43E-05,  avg # of iterations =  2.0

     total cpu time spent up to now is        1.6 secs

     total energy              =    -325.58886590 Ry
     estimated scf accuracy    <       0.00042383 Ry

     iteration #  3     ecut=   193.00 Ry     beta= 0.70
     Davidson diagonalization with overlap
     ethr =  1.51E-06,  avg # of iterations =  2.4

     total cpu time spent up to now is        1.8 secs

     total energy              =    -325.58902503 Ry
     estimated scf accuracy    <       0.00002822 Ry

     iteration #  4     ecut=   193.00 Ry     beta= 0.70
     Davidson diagonalization with overlap
     ethr =  1.01E-07,  avg # of iterations =  3.2

     total cpu time spent up to now is        2.0 secs

     total energy              =    -325.58903111 Ry
     estimated scf accuracy    <       0.00000047 Ry

     iteration #  5     ecut=   193.00 Ry     beta= 0.70
     Davidson diagonalization with overlap
     ethr =  1.67E-09,  avg # of iterations =  3.3

     total cpu time spent up to now is        2.1 secs

     End of self-consistent calculation

          k = 0.0000 0.0000 0.0000 ( 16617 PWs)   bands (ev):

   -10.8112 -10.7284 -10.6847 -10.6732 -10.5232 -10.5232 -10.5121 -10.5121
   -10.4202 -10.3081  -0.3470   7.1620   8.8398   8.8398

          k =-0.2500 0.0000 0.4582 ( 16549 PWs)   bands (ev):

   -10.7753 -10.6474 -10.6426 -10.6014 -10.5790 -10.5377 -10.5293 -10.5063
   -10.4412 -10.3426   0.8913   6.5845   9.0440  11.2834

          k = 0.5000 0.0000-0.9164 ( 16490 PWs)   bands (ev):

   -10.7359 -10.6654 -10.6486 -10.6092 -10.5752 -10.5721 -10.4735 -10.4263
   -10.4226 -10.3760   3.8537   5.3959   8.4878   9.1145

          k =-0.2500 0.2500 0.9164 ( 16530 PWs)   bands (ev):

   -10.7498 -10.6620 -10.6187 -10.6018 -10.5999 -10.5493 -10.4906 -10.4712
   -10.3948 -10.3670   3.7390   6.0514   7.1234   9.1085

          k = 0.5000 0.2500-0.4582 ( 16525 PWs)   bands (ev):

   -10.7185 -10.6590 -10.6553 -10.6014 -10.5843 -10.5271 -10.4935 -10.4858
   -10.4686 -10.4042   2.0037   4.1414   9.3956  10.6281

          k = 0.2500 0.2500 0.0000 ( 16552 PWs)   bands (ev):

   -10.7612 -10.7352 -10.6999 -10.6429 -10.5498 -10.5024 -10.5007 -10.4927
   -10.4495 -10.3566   0.2177   4.5881   9.5064  10.5380

          k = 0.5000-0.5000-1.8328 ( 16526 PWs)   bands (ev):

   -10.7316 -10.7316 -10.6438 -10.6438 -10.5498 -10.5498 -10.4785 -10.4785
   -10.4393 -10.4393   1.9009   1.9009  11.4183  11.4183

          k = 0.0000 0.0000 0.9164 ( 16573 PWs)   bands (ev):

   -10.7414 -10.6337 -10.6337 -10.6142 -10.5692 -10.5692 -10.5453 -10.4519
   -10.3972 -10.3514   3.2957   7.1437   7.9733   9.4589

          k = 0.7500 0.0000-0.4582 ( 16528 PWs)   bands (ev):

   -10.7057 -10.6634 -10.6008 -10.5914 -10.5569 -10.5402 -10.5293 -10.4927
   -10.4865 -10.4303   3.0229   4.3602   7.2617   8.4574

          k = 0.5000 0.0000 0.0000 ( 16526 PWs)   bands (ev):

   -10.7471 -10.7174 -10.7054 -10.6114 -10.5273 -10.5194 -10.5155 -10.4727
   -10.4705 -10.4015   0.7802   4.3547   7.0799  10.7927

          k = 0.7500-0.7500-1.8328 ( 16516 PWs)   bands (ev):

   -10.7381 -10.7381 -10.6060 -10.6060 -10.5420 -10.5420 -10.4927 -10.4927
   -10.4640 -10.4640   2.4052   2.4052   7.9917   7.9917

          k = 0.5000-0.5000-0.9164 ( 16560 PWs)   bands (ev):

   -10.7140 -10.7140 -10.6436 -10.6436 -10.5361 -10.5361 -10.4424 -10.4424
   -10.4154 -10.4154   4.8062   4.8062   7.2812   7.2812

          k = 0.0000 0.0000-1.8328 ( 16502 PWs)   bands (ev):

   -10.7409 -10.7409 -10.5422 -10.5422 -10.5318 -10.5318 -10.5202 -10.5202
   -10.5074 -10.5074   3.2430   3.2430   6.0120   6.0120

     highest occupied level (ev):    11.4183

!    total energy              =    -325.58903124 Ry
     estimated scf accuracy    <          9.4E-09 Ry

     The total energy is the sum of the following terms:
     one-electron contribution =    -107.32888335 Ry
     hartree contribution      =      74.47791615 Ry
     xc contribution           =     -95.22276085 Ry
     ewald contribution        =    -197.51530320 Ry

     convergence has been achieved in   5 iterations

     Writing all to output data dir ./beta-sn-scf/betatin.save/ :
     XML data file, charge density, pseudopotentials, collected wavefunctions

     init_run     :      0.76s CPU      0.82s WALL (       1 calls)
     electrons    :      0.99s CPU      1.08s WALL (       1 calls)

     Called by init_run:
     wfcinit      :      0.07s CPU      0.07s WALL (       1 calls)
     potinit      :      0.02s CPU      0.04s WALL (       1 calls)
     hinit0       :      0.58s CPU      0.60s WALL (       1 calls)

     Called by electrons:
     c_bands      :      0.66s CPU      0.69s WALL (       6 calls)
     sum_band     :      0.18s CPU      0.20s WALL (       6 calls)
     v_of_rho     :      0.10s CPU      0.11s WALL (       6 calls)
     newd         :      0.04s CPU      0.05s WALL (       6 calls)
     mix_rho      :      0.01s CPU      0.01s WALL (       6 calls)

     Called by c_bands:
     init_us_2    :      0.01s CPU      0.01s WALL (      52 calls)
     cegterg      :      0.62s CPU      0.64s WALL (      24 calls)

     Called by *egterg:
     cdiaghg      :      0.03s CPU      0.03s WALL (      92 calls)
     h_psi        :      0.60s CPU      0.61s WALL (     100 calls)
     s_psi        :      0.01s CPU      0.01s WALL (     100 calls)
     g_psi        :      0.00s CPU      0.00s WALL (      72 calls)

     Called by h_psi:
     h_psi:calbec :      0.02s CPU      0.02s WALL (     100 calls)
     vloc_psi     :      0.57s CPU      0.58s WALL (     100 calls)
     add_vuspsi   :      0.01s CPU      0.01s WALL (     100 calls)

     General routines
     calbec       :      0.02s CPU      0.02s WALL (     124 calls)
     fft          :      0.59s CPU      0.60s WALL (      67 calls)
     ffts         :      0.01s CPU      0.01s WALL (       6 calls)
     fftw         :      0.59s CPU      0.61s WALL (    2172 calls)

     Parallel routines

     PWSCF        :      1.99s CPU      2.33s WALL


   This run was terminated on:  16:35:49   5Feb2026            

=------------------------------------------------------------------------------=
   JOB DONE.
=------------------------------------------------------------------------------=
