
     Program PWSCF v.7.3.1 starts on  5Feb2026 at 16:18:14 

     This program is part of the open-source Quantum ESPRESSO suite
     for quantum simulation of materials; please cite
         "P. Giannozzi et al., J. Phys.:Condens. Matter 21 395502 (2009);
         "P. Giannozzi et al., J. Phys.:Condens. Matter 29 465901 (2017);
         "P. Giannozzi et al., J. Chem. Phys. 152 154105 (2020);
          URL http://www.quantum-espresso.org", 
     in publications or presentations arising from this work. More details at
     http://www.quantum-espresso.org/quote

     Parallel version (MPI), running on   128 processors

     MPI processes distributed on     1 nodes
     241441 MiB available memory on the printing compute node when the environment starts

     Waiting for input...
     Reading input from standard input

     Current dimensions of program PWSCF are:
     Max number of different atomic species (ntypx) = 10
     Max number of k-points (npk) =  40000
     Max angular momentum in pseudopotentials (lmaxx) =  4

     K-points division:     npool     =       8
     R & G space division:  proc/nbgrp/npool/nimage =      16
     Subspace diagonalization in iterative solution of the eigenvalue problem:
     a serial algorithm will be used


     Parallelization info
     --------------------
     sticks:   dense  smooth     PW     G-vecs:    dense   smooth      PW
     Min         141     141     44                 3221     3221     563
     Max         142     142     45                 3222     3222     565
     Sum        2259    2259    705                51547    51547    9023

     Using Slab Decomposition



     bravais-lattice index     =            7
     lattice parameter (alat)  =      11.0200  a.u.
     unit-cell volume          =     365.0809 (a.u.)^3
     number of atoms/cell      =            2
     number of atomic types    =            1
     number of electrons       =        28.00
     number of Kohn-Sham states=           14
     kinetic-energy cutoff     =     103.0000  Ry
     charge density cutoff     =     412.0000  Ry
     scf convergence threshold =      1.0E-07
     mixing beta               =       0.7000
     number of iterations used =            8  plain     mixing
     Exchange-correlation=  SLA  PW   GGX  GGC
                           (   1   4   2   2   0   0   0)

     celldm(1)=  11.020000  celldm(2)=   0.000000  celldm(3)=   0.545600
     celldm(4)=   0.000000  celldm(5)=   0.000000  celldm(6)=   0.000000

     crystal axes: (cart. coord. in units of alat)
               a(1) = (   0.500000  -0.500000   0.272800 )  
               a(2) = (   0.500000   0.500000   0.272800 )  
               a(3) = (  -0.500000  -0.500000   0.272800 )  

     reciprocal axes: (cart. coord. in units 2 pi/alat)
               b(1) = (  1.000000 -1.000000  0.000000 )  
               b(2) = (  0.000000  1.000000  1.832845 )  
               b(3) = ( -1.000000  0.000000  1.832845 )  


     PseudoPot. # 1 for Sn read from file:
     ./Sn.pw91-n-van.UPF
     MD5 check sum: a38d2a872edd1a4efd76c0a1a38f7031
     Pseudo is Ultrasoft + core correction, Zval = 14.0
     Generated by new atomic code, or converted to UPF format
     Using radial grid of  891 points,  6 beta functions with: 
                l(1) =   0
                l(2) =   0
                l(3) =   1
                l(4) =   1
                l(5) =   2
                l(6) =   2
     Q(r) pseudized with  8 coefficients,  rinner =    1.100   1.100   1.100
                                                       1.100   1.100

     atomic species   valence    mass     pseudopotential
     Sn               14.00   118.70000     Sn( 1.00)

     16 Sym. Ops., with inversion, found (12 have fractional translation)



   Cartesian axes

     site n.     atom                  positions (alat units)
         1        Sn     tau(   1) = (   0.0000000  -0.2500000   0.0682000  )
         2        Sn     tau(   2) = (   0.0000000   0.2500000  -0.0682000  )

     number of k points=    13
                       cart. coord. in units 2pi/alat
        k(    1) = (   0.0000000   0.0000000   0.0000000), wk =   0.0312500
        k(    2) = (  -0.2500000   0.0000000   0.4582111), wk =   0.2500000
        k(    3) = (   0.5000000   0.0000000  -0.9164223), wk =   0.1250000
        k(    4) = (  -0.2500000   0.2500000   0.9164223), wk =   0.2500000
        k(    5) = (   0.5000000   0.2500000  -0.4582111), wk =   0.5000000
        k(    6) = (   0.2500000   0.2500000   0.0000000), wk =   0.1250000
        k(    7) = (   0.5000000  -0.5000000  -1.8328446), wk =   0.0625000
        k(    8) = (   0.0000000   0.0000000   0.9164223), wk =   0.0625000
        k(    9) = (   0.7500000   0.0000000  -0.4582111), wk =   0.2500000
        k(   10) = (   0.5000000   0.0000000   0.0000000), wk =   0.1250000
        k(   11) = (   0.7500000  -0.7500000  -1.8328446), wk =   0.1250000
        k(   12) = (   0.5000000  -0.5000000  -0.9164223), wk =   0.0625000
        k(   13) = (   0.0000000   0.0000000  -1.8328446), wk =   0.0312500

     Dense  grid:    51547 G-vectors     FFT dimensions: (  54,  54,  54)

     Estimated max dynamical RAM per process >       5.44 MB

     Estimated total dynamical RAM >     608.72 MB

     Initial potential from superposition of free atoms

     starting charge      27.9964, renormalised to      28.0000
     Starting wfcs are   18 randomized atomic wfcs

     total cpu time spent up to now is        0.7 secs

     per-process dynamical memory:    13.0 Mb

     Self-consistent Calculation

     iteration #  1     ecut=   103.00 Ry     beta= 0.70
     Davidson diagonalization with overlap
     ethr =  1.00E-02,  avg # of iterations =  1.8

     Threshold (ethr) on eigenvalues was too large:
     Diagonalizing with lowered threshold

     Davidson diagonalization with overlap
     ethr =  2.40E-05,  avg # of iterations =  3.8

     total cpu time spent up to now is        0.8 secs

     total energy              =    -325.57176679 Ry
     estimated scf accuracy    <       0.00693357 Ry

     iteration #  2     ecut=   103.00 Ry     beta= 0.70
     Davidson diagonalization with overlap
     ethr =  2.48E-05,  avg # of iterations =  2.0

     total cpu time spent up to now is        0.9 secs

     total energy              =    -325.57274904 Ry
     estimated scf accuracy    <       0.00055990 Ry

     iteration #  3     ecut=   103.00 Ry     beta= 0.70
     Davidson diagonalization with overlap
     ethr =  2.00E-06,  avg # of iterations =  2.3

     total cpu time spent up to now is        1.0 secs

     total energy              =    -325.57281490 Ry
     estimated scf accuracy    <       0.00004336 Ry

     iteration #  4     ecut=   103.00 Ry     beta= 0.70
     Davidson diagonalization with overlap
     ethr =  1.55E-07,  avg # of iterations =  2.6

     total cpu time spent up to now is        1.1 secs

     total energy              =    -325.57282097 Ry
     estimated scf accuracy    <       0.00000053 Ry

     iteration #  5     ecut=   103.00 Ry     beta= 0.70
     Davidson diagonalization with overlap
     ethr =  1.88E-09,  avg # of iterations =  3.8

     total cpu time spent up to now is        1.1 secs

     End of self-consistent calculation

          k = 0.0000 0.0000 0.0000 (  6457 PWs)   bands (ev):

   -10.8052 -10.7221 -10.6784 -10.6668 -10.5167 -10.5167 -10.5056 -10.5056
   -10.4137 -10.3016  -0.3473   7.1612   8.8397   8.8397

          k =-0.2500 0.0000 0.4582 (  6451 PWs)   bands (ev):

   -10.7692 -10.6411 -10.6363 -10.5951 -10.5726 -10.5313 -10.5228 -10.4999
   -10.4347 -10.3362   0.8909   6.5838   9.0440  11.2832

          k = 0.5000 0.0000-0.9164 (  6452 PWs)   bands (ev):

   -10.7298 -10.6591 -10.6423 -10.6029 -10.5688 -10.5658 -10.4671 -10.4198
   -10.4161 -10.3696   3.8531   5.3956   8.4874   9.1145

          k =-0.2500 0.2500 0.9164 (  6442 PWs)   bands (ev):

   -10.7436 -10.6557 -10.6124 -10.5954 -10.5935 -10.5430 -10.4841 -10.4647
   -10.3882 -10.3605   3.7385   6.0508   7.1234   9.1085

          k = 0.5000 0.2500-0.4582 (  6440 PWs)   bands (ev):

   -10.7124 -10.6527 -10.6490 -10.5951 -10.5779 -10.5207 -10.4870 -10.4793
   -10.4622 -10.3978   2.0033   4.1409   9.3955  10.6282

          k = 0.2500 0.2500 0.0000 (  6461 PWs)   bands (ev):

   -10.7551 -10.7289 -10.6936 -10.6366 -10.5435 -10.4960 -10.4943 -10.4863
   -10.4430 -10.3502   0.2173   4.5876   9.5064  10.5378

          k = 0.5000-0.5000-1.8328 (  6446 PWs)   bands (ev):

   -10.7253 -10.7253 -10.6376 -10.6376 -10.5434 -10.5434 -10.4720 -10.4720
   -10.4329 -10.4329   1.9005   1.9005  11.4184  11.4184

          k = 0.0000 0.0000 0.9164 (  6454 PWs)   bands (ev):

   -10.7353 -10.6273 -10.6273 -10.6079 -10.5628 -10.5628 -10.5390 -10.4454
   -10.3907 -10.3450   3.2953   7.1430   7.9732   9.4589

          k = 0.7500 0.0000-0.4582 (  6415 PWs)   bands (ev):

   -10.6996 -10.6571 -10.5944 -10.5851 -10.5505 -10.5338 -10.5229 -10.4863
   -10.4801 -10.4239   3.0225   4.3596   7.2618   8.4574

          k = 0.5000 0.0000 0.0000 (  6450 PWs)   bands (ev):

   -10.7409 -10.7112 -10.6993 -10.6051 -10.5209 -10.5129 -10.5091 -10.4662
   -10.4640 -10.3951   0.7799   4.3542   7.0799  10.7927

          k = 0.7500-0.7500-1.8328 (  6432 PWs)   bands (ev):

   -10.7318 -10.7318 -10.5997 -10.5997 -10.5357 -10.5357 -10.4862 -10.4862
   -10.4576 -10.4576   2.4048   2.4048   7.9917   7.9917

          k = 0.5000-0.5000-0.9164 (  6456 PWs)   bands (ev):

   -10.7078 -10.7078 -10.6372 -10.6372 -10.5297 -10.5297 -10.4361 -10.4361
   -10.4089 -10.4089   4.8056   4.8056   7.2814   7.2814

          k = 0.0000 0.0000-1.8328 (  6390 PWs)   bands (ev):

   -10.7347 -10.7347 -10.5360 -10.5360 -10.5254 -10.5254 -10.5137 -10.5137
   -10.5010 -10.5010   3.2426   3.2426   6.0121   6.0121

     highest occupied level (ev):    11.4184

!    total energy              =    -325.57282124 Ry
     estimated scf accuracy    <       0.00000003 Ry

     The total energy is the sum of the following terms:
     one-electron contribution =    -107.30819339 Ry
     hartree contribution      =      74.47194026 Ry
     xc contribution           =     -95.22126491 Ry
     ewald contribution        =    -197.51530320 Ry

     convergence has been achieved in   5 iterations

     Writing all to output data dir ./beta-sn-scf/betatin.save/ :
     XML data file, charge density, pseudopotentials, collected wavefunctions

     init_run     :      0.31s CPU      0.37s WALL (       1 calls)
     electrons    :      0.41s CPU      0.47s WALL (       1 calls)

     Called by init_run:
     wfcinit      :      0.03s CPU      0.03s WALL (       1 calls)
     potinit      :      0.01s CPU      0.03s WALL (       1 calls)
     hinit0       :      0.23s CPU      0.25s WALL (       1 calls)

     Called by electrons:
     c_bands      :      0.23s CPU      0.26s WALL (       6 calls)
     sum_band     :      0.08s CPU      0.08s WALL (       6 calls)
     v_of_rho     :      0.06s CPU      0.08s WALL (       6 calls)
     newd         :      0.03s CPU      0.03s WALL (       6 calls)
     mix_rho      :      0.01s CPU      0.01s WALL (       6 calls)

     Called by c_bands:
     init_us_2    :      0.00s CPU      0.01s WALL (      26 calls)
     cegterg      :      0.21s CPU      0.23s WALL (      12 calls)

     Called by *egterg:
     cdiaghg      :      0.02s CPU      0.02s WALL (      50 calls)
     h_psi        :      0.20s CPU      0.21s WALL (      54 calls)
     s_psi        :      0.00s CPU      0.00s WALL (      54 calls)
     g_psi        :      0.00s CPU      0.00s WALL (      40 calls)

     Called by h_psi:
     h_psi:calbec :      0.01s CPU      0.01s WALL (      54 calls)
     vloc_psi     :      0.18s CPU      0.19s WALL (      54 calls)
     add_vuspsi   :      0.00s CPU      0.00s WALL (      54 calls)

     General routines
     calbec       :      0.01s CPU      0.01s WALL (      66 calls)
     fft          :      0.23s CPU      0.24s WALL (      67 calls)
     ffts         :      0.00s CPU      0.00s WALL (       6 calls)
     fftw         :      0.20s CPU      0.21s WALL (    1090 calls)

     Parallel routines

     PWSCF        :      0.98s CPU      1.25s WALL


   This run was terminated on:  16:18:15   5Feb2026            

=------------------------------------------------------------------------------=
   JOB DONE.
=------------------------------------------------------------------------------=
