
     Program PWSCF v.7.3.1 starts on  5Feb2026 at 16:12:26 

     This program is part of the open-source Quantum ESPRESSO suite
     for quantum simulation of materials; please cite
         "P. Giannozzi et al., J. Phys.:Condens. Matter 21 395502 (2009);
         "P. Giannozzi et al., J. Phys.:Condens. Matter 29 465901 (2017);
         "P. Giannozzi et al., J. Chem. Phys. 152 154105 (2020);
          URL http://www.quantum-espresso.org", 
     in publications or presentations arising from this work. More details at
     http://www.quantum-espresso.org/quote

     Parallel version (MPI), running on   128 processors

     MPI processes distributed on     1 nodes
     241354 MiB available memory on the printing compute node when the environment starts

     Waiting for input...
     Reading input from standard input

     Current dimensions of program PWSCF are:
     Max number of different atomic species (ntypx) = 10
     Max number of k-points (npk) =  40000
     Max angular momentum in pseudopotentials (lmaxx) =  4

     K-points division:     npool     =       8
     R & G space division:  proc/nbgrp/npool/nimage =      16
     Subspace diagonalization in iterative solution of the eigenvalue problem:
     a serial algorithm will be used


     Parallelization info
     --------------------
     sticks:   dense  smooth     PW     G-vecs:    dense   smooth      PW
     Min          98      98     31                 1845     1845     342
     Max          99      99     32                 1847     1847     344
     Sum        1569    1569    503                29537    29537    5485

     Using Slab Decomposition



     bravais-lattice index     =            7
     lattice parameter (alat)  =      11.0200  a.u.
     unit-cell volume          =     365.0809 (a.u.)^3
     number of atoms/cell      =            2
     number of atomic types    =            1
     number of electrons       =        28.00
     number of Kohn-Sham states=           14
     kinetic-energy cutoff     =      71.0000  Ry
     charge density cutoff     =     284.0000  Ry
     scf convergence threshold =      1.0E-07
     mixing beta               =       0.7000
     number of iterations used =            8  plain     mixing
     Exchange-correlation=  SLA  PW   GGX  GGC
                           (   1   4   2   2   0   0   0)

     celldm(1)=  11.020000  celldm(2)=   0.000000  celldm(3)=   0.545600
     celldm(4)=   0.000000  celldm(5)=   0.000000  celldm(6)=   0.000000

     crystal axes: (cart. coord. in units of alat)
               a(1) = (   0.500000  -0.500000   0.272800 )  
               a(2) = (   0.500000   0.500000   0.272800 )  
               a(3) = (  -0.500000  -0.500000   0.272800 )  

     reciprocal axes: (cart. coord. in units 2 pi/alat)
               b(1) = (  1.000000 -1.000000  0.000000 )  
               b(2) = (  0.000000  1.000000  1.832845 )  
               b(3) = ( -1.000000  0.000000  1.832845 )  


     PseudoPot. # 1 for Sn read from file:
     ./Sn.pw91-n-van.UPF
     MD5 check sum: a38d2a872edd1a4efd76c0a1a38f7031
     Pseudo is Ultrasoft + core correction, Zval = 14.0
     Generated by new atomic code, or converted to UPF format
     Using radial grid of  891 points,  6 beta functions with: 
                l(1) =   0
                l(2) =   0
                l(3) =   1
                l(4) =   1
                l(5) =   2
                l(6) =   2
     Q(r) pseudized with  8 coefficients,  rinner =    1.100   1.100   1.100
                                                       1.100   1.100

     atomic species   valence    mass     pseudopotential
     Sn               14.00   118.70000     Sn( 1.00)

     16 Sym. Ops., with inversion, found (12 have fractional translation)



   Cartesian axes

     site n.     atom                  positions (alat units)
         1        Sn     tau(   1) = (   0.0000000  -0.2500000   0.0682000  )
         2        Sn     tau(   2) = (   0.0000000   0.2500000  -0.0682000  )

     number of k points=    13
                       cart. coord. in units 2pi/alat
        k(    1) = (   0.0000000   0.0000000   0.0000000), wk =   0.0312500
        k(    2) = (  -0.2500000   0.0000000   0.4582111), wk =   0.2500000
        k(    3) = (   0.5000000   0.0000000  -0.9164223), wk =   0.1250000
        k(    4) = (  -0.2500000   0.2500000   0.9164223), wk =   0.2500000
        k(    5) = (   0.5000000   0.2500000  -0.4582111), wk =   0.5000000
        k(    6) = (   0.2500000   0.2500000   0.0000000), wk =   0.1250000
        k(    7) = (   0.5000000  -0.5000000  -1.8328446), wk =   0.0625000
        k(    8) = (   0.0000000   0.0000000   0.9164223), wk =   0.0625000
        k(    9) = (   0.7500000   0.0000000  -0.4582111), wk =   0.2500000
        k(   10) = (   0.5000000   0.0000000   0.0000000), wk =   0.1250000
        k(   11) = (   0.7500000  -0.7500000  -1.8328446), wk =   0.1250000
        k(   12) = (   0.5000000  -0.5000000  -0.9164223), wk =   0.0625000
        k(   13) = (   0.0000000   0.0000000  -1.8328446), wk =   0.0312500

     Dense  grid:    29537 G-vectors     FFT dimensions: (  48,  48,  48)

     Estimated max dynamical RAM per process >       3.55 MB

     Estimated total dynamical RAM >     404.39 MB

     Initial potential from superposition of free atoms

     starting charge      27.9964, renormalised to      28.0000
     Starting wfcs are   18 randomized atomic wfcs

     total cpu time spent up to now is        0.8 secs

     per-process dynamical memory:    11.1 Mb

     Self-consistent Calculation

     iteration #  1     ecut=    71.00 Ry     beta= 0.70
     Davidson diagonalization with overlap
     ethr =  1.00E-02,  avg # of iterations =  1.8

     Threshold (ethr) on eigenvalues was too large:
     Diagonalizing with lowered threshold

     Davidson diagonalization with overlap
     ethr =  2.45E-05,  avg # of iterations =  3.9

     total cpu time spent up to now is        0.9 secs

     total energy              =    -325.56870395 Ry
     estimated scf accuracy    <       0.00693280 Ry

     iteration #  2     ecut=    71.00 Ry     beta= 0.70
     Davidson diagonalization with overlap
     ethr =  2.48E-05,  avg # of iterations =  2.0

     total cpu time spent up to now is        1.0 secs

     total energy              =    -325.56967380 Ry
     estimated scf accuracy    <       0.00056155 Ry

     iteration #  3     ecut=    71.00 Ry     beta= 0.70
     Davidson diagonalization with overlap
     ethr =  2.01E-06,  avg # of iterations =  2.0

     total cpu time spent up to now is        1.0 secs

     total energy              =    -325.56973402 Ry
     estimated scf accuracy    <       0.00004208 Ry

     iteration #  4     ecut=    71.00 Ry     beta= 0.70
     Davidson diagonalization with overlap
     ethr =  1.50E-07,  avg # of iterations =  2.8

     total cpu time spent up to now is        1.0 secs

     total energy              =    -325.56974029 Ry
     estimated scf accuracy    <       0.00000065 Ry

     iteration #  5     ecut=    71.00 Ry     beta= 0.70
     Davidson diagonalization with overlap
     ethr =  2.33E-09,  avg # of iterations =  3.4

     total cpu time spent up to now is        1.1 secs

     End of self-consistent calculation

          k = 0.0000 0.0000 0.0000 (  3677 PWs)   bands (ev):

   -10.8039 -10.7209 -10.6777 -10.6656 -10.5156 -10.5156 -10.5046 -10.5046
   -10.4129 -10.3004  -0.3471   7.1615   8.8397   8.8397

          k =-0.2500 0.0000 0.4582 (  3693 PWs)   bands (ev):

   -10.7680 -10.6403 -10.6351 -10.5939 -10.5716 -10.5302 -10.5217 -10.4987
   -10.4340 -10.3350   0.8911   6.5840   9.0441  11.2834

          k = 0.5000 0.0000-0.9164 (  3700 PWs)   bands (ev):

   -10.7286 -10.6580 -10.6414 -10.6017 -10.5680 -10.5647 -10.4663 -10.4186
   -10.4148 -10.3684   3.8533   5.3958   8.4877   9.1147

          k =-0.2500 0.2500 0.9164 (  3695 PWs)   bands (ev):

   -10.7425 -10.6546 -10.6114 -10.5946 -10.5925 -10.5420 -10.4830 -10.4639
   -10.3869 -10.3593   3.7387   6.0510   7.1237   9.1088

          k = 0.5000 0.2500-0.4582 (  3689 PWs)   bands (ev):

   -10.7112 -10.6516 -10.6479 -10.5940 -10.5771 -10.5196 -10.4862 -10.4783
   -10.4611 -10.3967   2.0035   4.1411   9.3956  10.6285

          k = 0.2500 0.2500 0.0000 (  3679 PWs)   bands (ev):

   -10.7539 -10.7277 -10.6924 -10.6359 -10.5424 -10.4950 -10.4932 -10.4852
   -10.4423 -10.3490   0.2175   4.5878   9.5064  10.5381

          k = 0.5000-0.5000-1.8328 (  3696 PWs)   bands (ev):

   -10.7241 -10.7241 -10.6364 -10.6364 -10.5427 -10.5427 -10.4709 -10.4709
   -10.4318 -10.4318   1.9007   1.9007  11.4185  11.4185

          k = 0.0000 0.0000 0.9164 (  3696 PWs)   bands (ev):

   -10.7341 -10.6263 -10.6263 -10.6072 -10.5618 -10.5618 -10.5376 -10.4447
   -10.3893 -10.3438   3.2954   7.1432   7.9735   9.4590

          k = 0.7500 0.0000-0.4582 (  3689 PWs)   bands (ev):

   -10.6983 -10.6559 -10.5933 -10.5842 -10.5497 -10.5328 -10.5218 -10.4856
   -10.4789 -10.4227   3.0226   4.3598   7.2620   8.4575

          k = 0.5000 0.0000 0.0000 (  3675 PWs)   bands (ev):

   -10.7397 -10.7100 -10.6981 -10.6044 -10.5198 -10.5119 -10.5081 -10.4652
   -10.4633 -10.3939   0.7801   4.3544   7.0801  10.7929

          k = 0.7500-0.7500-1.8328 (  3682 PWs)   bands (ev):

   -10.7306 -10.7306 -10.5986 -10.5986 -10.5349 -10.5349 -10.4852 -10.4852
   -10.4565 -10.4565   2.4050   2.4050   7.9919   7.9919

          k = 0.5000-0.5000-0.9164 (  3688 PWs)   bands (ev):

   -10.7067 -10.7067 -10.6361 -10.6361 -10.5289 -10.5289 -10.4349 -10.4349
   -10.4076 -10.4076   4.8057   4.8057   7.2816   7.2816

          k = 0.0000 0.0000-1.8328 (  3668 PWs)   bands (ev):

   -10.7334 -10.7334 -10.5348 -10.5348 -10.5247 -10.5247 -10.5126 -10.5126
   -10.4999 -10.4999   3.2428   3.2428   6.0122   6.0122

     highest occupied level (ev):    11.4185

!    total energy              =    -325.56974059 Ry
     estimated scf accuracy    <       0.00000008 Ry

     The total energy is the sum of the following terms:
     one-electron contribution =    -107.30419263 Ry
     hartree contribution      =      74.47082700 Ry
     xc contribution           =     -95.22107176 Ry
     ewald contribution        =    -197.51530320 Ry

     convergence has been achieved in   5 iterations

     Writing all to output data dir ./beta-sn-scf/betatin.save/ :
     XML data file, charge density, pseudopotentials, collected wavefunctions

     init_run     :      0.44s CPU      0.49s WALL (       1 calls)
     electrons    :      0.23s CPU      0.29s WALL (       1 calls)

     Called by init_run:
     wfcinit      :      0.01s CPU      0.02s WALL (       1 calls)
     potinit      :      0.02s CPU      0.02s WALL (       1 calls)
     hinit0       :      0.38s CPU      0.40s WALL (       1 calls)

     Called by electrons:
     c_bands      :      0.14s CPU      0.16s WALL (       6 calls)
     sum_band     :      0.04s CPU      0.05s WALL (       6 calls)
     v_of_rho     :      0.04s CPU      0.04s WALL (       6 calls)
     newd         :      0.01s CPU      0.01s WALL (       6 calls)
     mix_rho      :      0.00s CPU      0.00s WALL (       6 calls)

     Called by c_bands:
     init_us_2    :      0.00s CPU      0.00s WALL (      26 calls)
     cegterg      :      0.12s CPU      0.13s WALL (      12 calls)

     Called by *egterg:
     cdiaghg      :      0.01s CPU      0.02s WALL (      48 calls)
     h_psi        :      0.10s CPU      0.12s WALL (      52 calls)
     s_psi        :      0.00s CPU      0.00s WALL (      52 calls)
     g_psi        :      0.00s CPU      0.00s WALL (      38 calls)

     Called by h_psi:
     h_psi:calbec :      0.01s CPU      0.01s WALL (      52 calls)
     vloc_psi     :      0.09s CPU      0.11s WALL (      52 calls)
     add_vuspsi   :      0.00s CPU      0.00s WALL (      52 calls)

     General routines
     calbec       :      0.01s CPU      0.01s WALL (      64 calls)
     fft          :      0.36s CPU      0.37s WALL (      67 calls)
     ffts         :      0.00s CPU      0.00s WALL (       6 calls)
     fftw         :      0.10s CPU      0.11s WALL (    1078 calls)

     Parallel routines

     PWSCF        :      0.96s CPU      1.18s WALL


   This run was terminated on:  16:12:27   5Feb2026            

=------------------------------------------------------------------------------=
   JOB DONE.
=------------------------------------------------------------------------------=
