
     Program PWSCF v.7.3.1 starts on  5Feb2026 at 16:16:24 

     This program is part of the open-source Quantum ESPRESSO suite
     for quantum simulation of materials; please cite
         "P. Giannozzi et al., J. Phys.:Condens. Matter 21 395502 (2009);
         "P. Giannozzi et al., J. Phys.:Condens. Matter 29 465901 (2017);
         "P. Giannozzi et al., J. Chem. Phys. 152 154105 (2020);
          URL http://www.quantum-espresso.org", 
     in publications or presentations arising from this work. More details at
     http://www.quantum-espresso.org/quote

     Parallel version (MPI), running on   128 processors

     MPI processes distributed on     1 nodes
     241310 MiB available memory on the printing compute node when the environment starts

     Waiting for input...
     Reading input from standard input

     Current dimensions of program PWSCF are:
     Max number of different atomic species (ntypx) = 10
     Max number of k-points (npk) =  40000
     Max angular momentum in pseudopotentials (lmaxx) =  4

     K-points division:     npool     =       8
     R & G space division:  proc/nbgrp/npool/nimage =      16
     Subspace diagonalization in iterative solution of the eigenvalue problem:
     a serial algorithm will be used


     Parallelization info
     --------------------
     sticks:   dense  smooth     PW     G-vecs:    dense   smooth      PW
     Min         127     127     40                 2765     2765     495
     Max         128     128     41                 2768     2768     497
     Sum        2047    2047    651                44271    44271    7931

     Using Slab Decomposition



     bravais-lattice index     =            7
     lattice parameter (alat)  =      11.0200  a.u.
     unit-cell volume          =     365.0809 (a.u.)^3
     number of atoms/cell      =            2
     number of atomic types    =            1
     number of electrons       =        28.00
     number of Kohn-Sham states=           14
     kinetic-energy cutoff     =      93.0000  Ry
     charge density cutoff     =     372.0000  Ry
     scf convergence threshold =      1.0E-07
     mixing beta               =       0.7000
     number of iterations used =            8  plain     mixing
     Exchange-correlation=  SLA  PW   GGX  GGC
                           (   1   4   2   2   0   0   0)

     celldm(1)=  11.020000  celldm(2)=   0.000000  celldm(3)=   0.545600
     celldm(4)=   0.000000  celldm(5)=   0.000000  celldm(6)=   0.000000

     crystal axes: (cart. coord. in units of alat)
               a(1) = (   0.500000  -0.500000   0.272800 )  
               a(2) = (   0.500000   0.500000   0.272800 )  
               a(3) = (  -0.500000  -0.500000   0.272800 )  

     reciprocal axes: (cart. coord. in units 2 pi/alat)
               b(1) = (  1.000000 -1.000000  0.000000 )  
               b(2) = (  0.000000  1.000000  1.832845 )  
               b(3) = ( -1.000000  0.000000  1.832845 )  


     PseudoPot. # 1 for Sn read from file:
     ./Sn.pw91-n-van.UPF
     MD5 check sum: a38d2a872edd1a4efd76c0a1a38f7031
     Pseudo is Ultrasoft + core correction, Zval = 14.0
     Generated by new atomic code, or converted to UPF format
     Using radial grid of  891 points,  6 beta functions with: 
                l(1) =   0
                l(2) =   0
                l(3) =   1
                l(4) =   1
                l(5) =   2
                l(6) =   2
     Q(r) pseudized with  8 coefficients,  rinner =    1.100   1.100   1.100
                                                       1.100   1.100

     atomic species   valence    mass     pseudopotential
     Sn               14.00   118.70000     Sn( 1.00)

     16 Sym. Ops., with inversion, found (12 have fractional translation)



   Cartesian axes

     site n.     atom                  positions (alat units)
         1        Sn     tau(   1) = (   0.0000000  -0.2500000   0.0682000  )
         2        Sn     tau(   2) = (   0.0000000   0.2500000  -0.0682000  )

     number of k points=    13
                       cart. coord. in units 2pi/alat
        k(    1) = (   0.0000000   0.0000000   0.0000000), wk =   0.0312500
        k(    2) = (  -0.2500000   0.0000000   0.4582111), wk =   0.2500000
        k(    3) = (   0.5000000   0.0000000  -0.9164223), wk =   0.1250000
        k(    4) = (  -0.2500000   0.2500000   0.9164223), wk =   0.2500000
        k(    5) = (   0.5000000   0.2500000  -0.4582111), wk =   0.5000000
        k(    6) = (   0.2500000   0.2500000   0.0000000), wk =   0.1250000
        k(    7) = (   0.5000000  -0.5000000  -1.8328446), wk =   0.0625000
        k(    8) = (   0.0000000   0.0000000   0.9164223), wk =   0.0625000
        k(    9) = (   0.7500000   0.0000000  -0.4582111), wk =   0.2500000
        k(   10) = (   0.5000000   0.0000000   0.0000000), wk =   0.1250000
        k(   11) = (   0.7500000  -0.7500000  -1.8328446), wk =   0.1250000
        k(   12) = (   0.5000000  -0.5000000  -0.9164223), wk =   0.0625000
        k(   13) = (   0.0000000   0.0000000  -1.8328446), wk =   0.0312500

     Dense  grid:    44271 G-vectors     FFT dimensions: (  54,  54,  54)

     Estimated max dynamical RAM per process >       4.94 MB

     Estimated total dynamical RAM >     556.59 MB

     Initial potential from superposition of free atoms

     starting charge      27.9964, renormalised to      28.0000
     Starting wfcs are   18 randomized atomic wfcs

     total cpu time spent up to now is        0.6 secs

     per-process dynamical memory:    12.7 Mb

     Self-consistent Calculation

     iteration #  1     ecut=    93.00 Ry     beta= 0.70
     Davidson diagonalization with overlap
     ethr =  1.00E-02,  avg # of iterations =  1.8

     Threshold (ethr) on eigenvalues was too large:
     Diagonalizing with lowered threshold

     Davidson diagonalization with overlap
     ethr =  2.43E-05,  avg # of iterations =  4.0

     total cpu time spent up to now is        0.8 secs

     total energy              =    -325.57144087 Ry
     estimated scf accuracy    <       0.00692938 Ry

     iteration #  2     ecut=    93.00 Ry     beta= 0.70
     Davidson diagonalization with overlap
     ethr =  2.47E-05,  avg # of iterations =  2.0

     total cpu time spent up to now is        0.9 secs

     total energy              =    -325.57241391 Ry
     estimated scf accuracy    <       0.00056101 Ry

     iteration #  3     ecut=    93.00 Ry     beta= 0.70
     Davidson diagonalization with overlap
     ethr =  2.00E-06,  avg # of iterations =  2.1

     total cpu time spent up to now is        0.9 secs

     total energy              =    -325.57247547 Ry
     estimated scf accuracy    <       0.00004210 Ry

     iteration #  4     ecut=    93.00 Ry     beta= 0.70
     Davidson diagonalization with overlap
     ethr =  1.50E-07,  avg # of iterations =  3.3

     total cpu time spent up to now is        1.0 secs

     total energy              =    -325.57248314 Ry
     estimated scf accuracy    <       0.00000086 Ry

     iteration #  5     ecut=    93.00 Ry     beta= 0.70
     Davidson diagonalization with overlap
     ethr =  3.07E-09,  avg # of iterations =  3.3

     total cpu time spent up to now is        1.1 secs

     total energy              =    -325.57248338 Ry
     estimated scf accuracy    <       0.00000016 Ry

     iteration #  6     ecut=    93.00 Ry     beta= 0.70
     Davidson diagonalization with overlap
     ethr =  5.70E-10,  avg # of iterations =  2.4

     total cpu time spent up to now is        1.2 secs

     End of self-consistent calculation

          k = 0.0000 0.0000 0.0000 (  5509 PWs)   bands (ev):

   -10.8045 -10.7217 -10.6778 -10.6664 -10.5162 -10.5162 -10.5051 -10.5051
   -10.4130 -10.3009  -0.3473   7.1612   8.8397   8.8397

          k =-0.2500 0.0000 0.4582 (  5529 PWs)   bands (ev):

   -10.7686 -10.6404 -10.6359 -10.5947 -10.5721 -10.5308 -10.5224 -10.4995
   -10.4340 -10.3355   0.8910   6.5838   9.0441  11.2832

          k = 0.5000 0.0000-0.9164 (  5532 PWs)   bands (ev):

   -10.7292 -10.6586 -10.6418 -10.6024 -10.5682 -10.5653 -10.4664 -10.4194
   -10.4157 -10.3690   3.8532   5.3956   8.4874   9.1143

          k =-0.2500 0.2500 0.9164 (  5529 PWs)   bands (ev):

   -10.7431 -10.6552 -10.6119 -10.5948 -10.5930 -10.5424 -10.4836 -10.4641
   -10.3878 -10.3600   3.7386   6.0509   7.1233   9.1084

          k = 0.5000 0.2500-0.4582 (  5529 PWs)   bands (ev):

   -10.7118 -10.6523 -10.6486 -10.5945 -10.5773 -10.5202 -10.4864 -10.4788
   -10.4617 -10.3972   2.0034   4.1410   9.3956  10.6282

          k = 0.2500 0.2500 0.0000 (  5534 PWs)   bands (ev):

   -10.7545 -10.7285 -10.6932 -10.6359 -10.5430 -10.4955 -10.4938 -10.4858
   -10.4424 -10.3495   0.2174   4.5877   9.5064  10.5379

          k = 0.5000-0.5000-1.8328 (  5556 PWs)   bands (ev):

   -10.7249 -10.7249 -10.6370 -10.6370 -10.5428 -10.5428 -10.4715 -10.4715
   -10.4324 -10.4324   1.9005   1.9005  11.4185  11.4185

          k = 0.0000 0.0000 0.9164 (  5513 PWs)   bands (ev):

   -10.7347 -10.6268 -10.6268 -10.6072 -10.5623 -10.5623 -10.5385 -10.4448
   -10.3903 -10.3444   3.2954   7.1431   7.9731   9.4591

          k = 0.7500 0.0000-0.4582 (  5530 PWs)   bands (ev):

   -10.6990 -10.6567 -10.5939 -10.5845 -10.5500 -10.5333 -10.5224 -10.4857
   -10.4796 -10.4233   3.0225   4.3597   7.2619   8.4575

          k = 0.5000 0.0000 0.0000 (  5533 PWs)   bands (ev):

   -10.7404 -10.7108 -10.6987 -10.6044 -10.5204 -10.5124 -10.5086 -10.4657
   -10.4634 -10.3944   0.7799   4.3542   7.0800  10.7928

          k = 0.7500-0.7500-1.8328 (  5536 PWs)   bands (ev):

   -10.7314 -10.7314 -10.5992 -10.5992 -10.5350 -10.5350 -10.4857 -10.4857
   -10.4570 -10.4570   2.4049   2.4049   7.9918   7.9918

          k = 0.5000-0.5000-0.9164 (  5540 PWs)   bands (ev):

   -10.7073 -10.7073 -10.6367 -10.6367 -10.5290 -10.5290 -10.4355 -10.4355
   -10.4085 -10.4085   4.8057   4.8057   7.2812   7.2812

          k = 0.0000 0.0000-1.8328 (  5522 PWs)   bands (ev):

   -10.7342 -10.7342 -10.5354 -10.5354 -10.5247 -10.5247 -10.5132 -10.5132
   -10.5005 -10.5005   3.2426   3.2426   6.0121   6.0121

     highest occupied level (ev):    11.4185

!    total energy              =    -325.57248339 Ry
     estimated scf accuracy    <          2.6E-09 Ry

     The total energy is the sum of the following terms:
     one-electron contribution =    -107.30743183 Ry
     hartree contribution      =      74.47140237 Ry
     xc contribution           =     -95.22115073 Ry
     ewald contribution        =    -197.51530320 Ry

     convergence has been achieved in   6 iterations

     Writing all to output data dir ./beta-sn-scf/betatin.save/ :
     XML data file, charge density, pseudopotentials, collected wavefunctions

     init_run     :      0.31s CPU      0.36s WALL (       1 calls)
     electrons    :      0.45s CPU      0.54s WALL (       1 calls)

     Called by init_run:
     wfcinit      :      0.02s CPU      0.03s WALL (       1 calls)
     potinit      :      0.02s CPU      0.03s WALL (       1 calls)
     hinit0       :      0.23s CPU      0.25s WALL (       1 calls)

     Called by electrons:
     c_bands      :      0.27s CPU      0.29s WALL (       7 calls)
     sum_band     :      0.08s CPU      0.09s WALL (       7 calls)
     v_of_rho     :      0.07s CPU      0.09s WALL (       7 calls)
     newd         :      0.03s CPU      0.03s WALL (       7 calls)
     mix_rho      :      0.01s CPU      0.01s WALL (       7 calls)

     Called by c_bands:
     init_us_2    :      0.00s CPU      0.01s WALL (      30 calls)
     cegterg      :      0.24s CPU      0.26s WALL (      14 calls)

     Called by *egterg:
     cdiaghg      :      0.02s CPU      0.02s WALL (      62 calls)
     h_psi        :      0.22s CPU      0.23s WALL (      66 calls)
     s_psi        :      0.00s CPU      0.00s WALL (      66 calls)
     g_psi        :      0.00s CPU      0.00s WALL (      50 calls)

     Called by h_psi:
     h_psi:calbec :      0.01s CPU      0.01s WALL (      66 calls)
     vloc_psi     :      0.21s CPU      0.22s WALL (      66 calls)
     add_vuspsi   :      0.00s CPU      0.00s WALL (      66 calls)

     General routines
     calbec       :      0.01s CPU      0.01s WALL (      80 calls)
     fft          :      0.24s CPU      0.25s WALL (      78 calls)
     ffts         :      0.00s CPU      0.00s WALL (       7 calls)
     fftw         :      0.22s CPU      0.24s WALL (    1262 calls)

     Parallel routines

     PWSCF        :      0.99s CPU      1.28s WALL


   This run was terminated on:  16:16:25   5Feb2026            

=------------------------------------------------------------------------------=
   JOB DONE.
=------------------------------------------------------------------------------=
