
     Program PWSCF v.7.3.1 starts on  5Feb2026 at 16:16: 6 

     This program is part of the open-source Quantum ESPRESSO suite
     for quantum simulation of materials; please cite
         "P. Giannozzi et al., J. Phys.:Condens. Matter 21 395502 (2009);
         "P. Giannozzi et al., J. Phys.:Condens. Matter 29 465901 (2017);
         "P. Giannozzi et al., J. Chem. Phys. 152 154105 (2020);
          URL http://www.quantum-espresso.org", 
     in publications or presentations arising from this work. More details at
     http://www.quantum-espresso.org/quote

     Parallel version (MPI), running on   128 processors

     MPI processes distributed on     1 nodes
     241353 MiB available memory on the printing compute node when the environment starts

     Waiting for input...
     Reading input from standard input

     Current dimensions of program PWSCF are:
     Max number of different atomic species (ntypx) = 10
     Max number of k-points (npk) =  40000
     Max angular momentum in pseudopotentials (lmaxx) =  4

     K-points division:     npool     =       8
     R & G space division:  proc/nbgrp/npool/nimage =      16
     Subspace diagonalization in iterative solution of the eigenvalue problem:
     a serial algorithm will be used


     Parallelization info
     --------------------
     sticks:   dense  smooth     PW     G-vecs:    dense   smooth      PW
     Min         125     125     40                 2675     2675     481
     Max         126     126     41                 2677     2677     482
     Sum        2007    2007    643                42815    42815    7707

     Using Slab Decomposition



     bravais-lattice index     =            7
     lattice parameter (alat)  =      11.0200  a.u.
     unit-cell volume          =     365.0809 (a.u.)^3
     number of atoms/cell      =            2
     number of atomic types    =            1
     number of electrons       =        28.00
     number of Kohn-Sham states=           14
     kinetic-energy cutoff     =      91.0000  Ry
     charge density cutoff     =     364.0000  Ry
     scf convergence threshold =      1.0E-07
     mixing beta               =       0.7000
     number of iterations used =            8  plain     mixing
     Exchange-correlation=  SLA  PW   GGX  GGC
                           (   1   4   2   2   0   0   0)

     celldm(1)=  11.020000  celldm(2)=   0.000000  celldm(3)=   0.545600
     celldm(4)=   0.000000  celldm(5)=   0.000000  celldm(6)=   0.000000

     crystal axes: (cart. coord. in units of alat)
               a(1) = (   0.500000  -0.500000   0.272800 )  
               a(2) = (   0.500000   0.500000   0.272800 )  
               a(3) = (  -0.500000  -0.500000   0.272800 )  

     reciprocal axes: (cart. coord. in units 2 pi/alat)
               b(1) = (  1.000000 -1.000000  0.000000 )  
               b(2) = (  0.000000  1.000000  1.832845 )  
               b(3) = ( -1.000000  0.000000  1.832845 )  


     PseudoPot. # 1 for Sn read from file:
     ./Sn.pw91-n-van.UPF
     MD5 check sum: a38d2a872edd1a4efd76c0a1a38f7031
     Pseudo is Ultrasoft + core correction, Zval = 14.0
     Generated by new atomic code, or converted to UPF format
     Using radial grid of  891 points,  6 beta functions with: 
                l(1) =   0
                l(2) =   0
                l(3) =   1
                l(4) =   1
                l(5) =   2
                l(6) =   2
     Q(r) pseudized with  8 coefficients,  rinner =    1.100   1.100   1.100
                                                       1.100   1.100

     atomic species   valence    mass     pseudopotential
     Sn               14.00   118.70000     Sn( 1.00)

     16 Sym. Ops., with inversion, found (12 have fractional translation)



   Cartesian axes

     site n.     atom                  positions (alat units)
         1        Sn     tau(   1) = (   0.0000000  -0.2500000   0.0682000  )
         2        Sn     tau(   2) = (   0.0000000   0.2500000  -0.0682000  )

     number of k points=    13
                       cart. coord. in units 2pi/alat
        k(    1) = (   0.0000000   0.0000000   0.0000000), wk =   0.0312500
        k(    2) = (  -0.2500000   0.0000000   0.4582111), wk =   0.2500000
        k(    3) = (   0.5000000   0.0000000  -0.9164223), wk =   0.1250000
        k(    4) = (  -0.2500000   0.2500000   0.9164223), wk =   0.2500000
        k(    5) = (   0.5000000   0.2500000  -0.4582111), wk =   0.5000000
        k(    6) = (   0.2500000   0.2500000   0.0000000), wk =   0.1250000
        k(    7) = (   0.5000000  -0.5000000  -1.8328446), wk =   0.0625000
        k(    8) = (   0.0000000   0.0000000   0.9164223), wk =   0.0625000
        k(    9) = (   0.7500000   0.0000000  -0.4582111), wk =   0.2500000
        k(   10) = (   0.5000000   0.0000000   0.0000000), wk =   0.1250000
        k(   11) = (   0.7500000  -0.7500000  -1.8328446), wk =   0.1250000
        k(   12) = (   0.5000000  -0.5000000  -0.9164223), wk =   0.0625000
        k(   13) = (   0.0000000   0.0000000  -1.8328446), wk =   0.0312500

     Dense  grid:    42815 G-vectors     FFT dimensions: (  54,  54,  54)

     Estimated max dynamical RAM per process >       4.84 MB

     Estimated total dynamical RAM >     545.85 MB

     Initial potential from superposition of free atoms

     starting charge      27.9964, renormalised to      28.0000
     Starting wfcs are   18 randomized atomic wfcs

     total cpu time spent up to now is        0.6 secs

     per-process dynamical memory:    12.8 Mb

     Self-consistent Calculation

     iteration #  1     ecut=    91.00 Ry     beta= 0.70
     Davidson diagonalization with overlap
     ethr =  1.00E-02,  avg # of iterations =  1.8

     Threshold (ethr) on eigenvalues was too large:
     Diagonalizing with lowered threshold

     Davidson diagonalization with overlap
     ethr =  2.42E-05,  avg # of iterations =  3.9

     total cpu time spent up to now is        0.8 secs

     total energy              =    -325.57118993 Ry
     estimated scf accuracy    <       0.00694018 Ry

     iteration #  2     ecut=    91.00 Ry     beta= 0.70
     Davidson diagonalization with overlap
     ethr =  2.48E-05,  avg # of iterations =  2.0

     total cpu time spent up to now is        0.9 secs

     total energy              =    -325.57215886 Ry
     estimated scf accuracy    <       0.00056004 Ry

     iteration #  3     ecut=    91.00 Ry     beta= 0.70
     Davidson diagonalization with overlap
     ethr =  2.00E-06,  avg # of iterations =  2.2

     total cpu time spent up to now is        0.9 secs

     total energy              =    -325.57222301 Ry
     estimated scf accuracy    <       0.00004179 Ry

     iteration #  4     ecut=    91.00 Ry     beta= 0.70
     Davidson diagonalization with overlap
     ethr =  1.49E-07,  avg # of iterations =  2.9

     total cpu time spent up to now is        1.0 secs

     total energy              =    -325.57222942 Ry
     estimated scf accuracy    <       0.00000055 Ry

     iteration #  5     ecut=    91.00 Ry     beta= 0.70
     Davidson diagonalization with overlap
     ethr =  1.96E-09,  avg # of iterations =  3.9

     total cpu time spent up to now is        1.1 secs

     End of self-consistent calculation

          k = 0.0000 0.0000 0.0000 (  5325 PWs)   bands (ev):

   -10.8047 -10.7217 -10.6781 -10.6664 -10.5163 -10.5163 -10.5052 -10.5052
   -10.4134 -10.3011  -0.3473   7.1612   8.8397   8.8397

          k =-0.2500 0.0000 0.4582 (  5362 PWs)   bands (ev):

   -10.7688 -10.6408 -10.6360 -10.5947 -10.5722 -10.5309 -10.5225 -10.4995
   -10.4344 -10.3356   0.8909   6.5838   9.0440  11.2832

          k = 0.5000 0.0000-0.9164 (  5362 PWs)   bands (ev):

   -10.7294 -10.6587 -10.6420 -10.6025 -10.5685 -10.5654 -10.4668 -10.4194
   -10.4157 -10.3692   3.8531   5.3956   8.4875   9.1145

          k =-0.2500 0.2500 0.9164 (  5361 PWs)   bands (ev):

   -10.7433 -10.6553 -10.6120 -10.5951 -10.5931 -10.5426 -10.4838 -10.4644
   -10.3879 -10.3601   3.7385   6.0509   7.1234   9.1085

          k = 0.5000 0.2500-0.4582 (  5349 PWs)   bands (ev):

   -10.7120 -10.6524 -10.6487 -10.5947 -10.5776 -10.5203 -10.4867 -10.4790
   -10.4618 -10.3973   2.0033   4.1409   9.3955  10.6282

          k = 0.2500 0.2500 0.0000 (  5350 PWs)   bands (ev):

   -10.7547 -10.7285 -10.6932 -10.6363 -10.5430 -10.4956 -10.4938 -10.4859
   -10.4427 -10.3497   0.2174   4.5877   9.5064  10.5378

          k = 0.5000-0.5000-1.8328 (  5356 PWs)   bands (ev):

   -10.7249 -10.7249 -10.6372 -10.6372 -10.5431 -10.5431 -10.4716 -10.4716
   -10.4325 -10.4325   1.9005   1.9005  11.4185  11.4185

          k = 0.0000 0.0000 0.9164 (  5369 PWs)   bands (ev):

   -10.7350 -10.6270 -10.6270 -10.6075 -10.5625 -10.5625 -10.5386 -10.4451
   -10.3904 -10.3445   3.2953   7.1431   7.9732   9.4589

          k = 0.7500 0.0000-0.4582 (  5343 PWs)   bands (ev):

   -10.6991 -10.6568 -10.5940 -10.5847 -10.5502 -10.5334 -10.5225 -10.4860
   -10.4796 -10.4234   3.0225   4.3597   7.2619   8.4574

          k = 0.5000 0.0000 0.0000 (  5347 PWs)   bands (ev):

   -10.7405 -10.7108 -10.6989 -10.6048 -10.5205 -10.5125 -10.5087 -10.4658
   -10.4637 -10.3946   0.7799   4.3542   7.0799  10.7927

          k = 0.7500-0.7500-1.8328 (  5340 PWs)   bands (ev):

   -10.7314 -10.7314 -10.5993 -10.5993 -10.5353 -10.5353 -10.4858 -10.4858
   -10.4571 -10.4571   2.4048   2.4048   7.9918   7.9918

          k = 0.5000-0.5000-0.9164 (  5328 PWs)   bands (ev):

   -10.7074 -10.7074 -10.6368 -10.6368 -10.5293 -10.5293 -10.4355 -10.4355
   -10.4085 -10.4085   4.8056   4.8056   7.2814   7.2814

          k = 0.0000 0.0000-1.8328 (  5330 PWs)   bands (ev):

   -10.7342 -10.7342 -10.5355 -10.5355 -10.5251 -10.5251 -10.5133 -10.5133
   -10.5005 -10.5005   3.2426   3.2426   6.0121   6.0121

     highest occupied level (ev):    11.4185

!    total energy              =    -325.57222967 Ry
     estimated scf accuracy    <       0.00000003 Ry

     The total energy is the sum of the following terms:
     one-electron contribution =    -107.30739036 Ry
     hartree contribution      =      74.47170819 Ry
     xc contribution           =     -95.22124431 Ry
     ewald contribution        =    -197.51530320 Ry

     convergence has been achieved in   5 iterations

     Writing all to output data dir ./beta-sn-scf/betatin.save/ :
     XML data file, charge density, pseudopotentials, collected wavefunctions

     init_run     :      0.30s CPU      0.37s WALL (       1 calls)
     electrons    :      0.38s CPU      0.43s WALL (       1 calls)

     Called by init_run:
     wfcinit      :      0.03s CPU      0.03s WALL (       1 calls)
     potinit      :      0.02s CPU      0.04s WALL (       1 calls)
     hinit0       :      0.22s CPU      0.24s WALL (       1 calls)

     Called by electrons:
     c_bands      :      0.23s CPU      0.24s WALL (       6 calls)
     sum_band     :      0.07s CPU      0.07s WALL (       6 calls)
     v_of_rho     :      0.05s CPU      0.07s WALL (       6 calls)
     newd         :      0.01s CPU      0.02s WALL (       6 calls)
     mix_rho      :      0.00s CPU      0.01s WALL (       6 calls)

     Called by c_bands:
     init_us_2    :      0.00s CPU      0.00s WALL (      26 calls)
     cegterg      :      0.21s CPU      0.22s WALL (      12 calls)

     Called by *egterg:
     cdiaghg      :      0.02s CPU      0.02s WALL (      51 calls)
     h_psi        :      0.20s CPU      0.21s WALL (      55 calls)
     s_psi        :      0.00s CPU      0.00s WALL (      55 calls)
     g_psi        :      0.00s CPU      0.00s WALL (      41 calls)

     Called by h_psi:
     h_psi:calbec :      0.01s CPU      0.01s WALL (      55 calls)
     vloc_psi     :      0.18s CPU      0.19s WALL (      55 calls)
     add_vuspsi   :      0.00s CPU      0.00s WALL (      55 calls)

     General routines
     calbec       :      0.01s CPU      0.01s WALL (      67 calls)
     fft          :      0.22s CPU      0.23s WALL (      67 calls)
     ffts         :      0.00s CPU      0.00s WALL (       6 calls)
     fftw         :      0.20s CPU      0.20s WALL (    1096 calls)

     Parallel routines

     PWSCF        :      0.90s CPU      1.17s WALL


   This run was terminated on:  16:16: 7   5Feb2026            

=------------------------------------------------------------------------------=
   JOB DONE.
=------------------------------------------------------------------------------=
