
     Program PWSCF v.7.3.1 starts on  5Feb2026 at 16:23:49 

     This program is part of the open-source Quantum ESPRESSO suite
     for quantum simulation of materials; please cite
         "P. Giannozzi et al., J. Phys.:Condens. Matter 21 395502 (2009);
         "P. Giannozzi et al., J. Phys.:Condens. Matter 29 465901 (2017);
         "P. Giannozzi et al., J. Chem. Phys. 152 154105 (2020);
          URL http://www.quantum-espresso.org", 
     in publications or presentations arising from this work. More details at
     http://www.quantum-espresso.org/quote

     Parallel version (MPI), running on   128 processors

     MPI processes distributed on     1 nodes
     241335 MiB available memory on the printing compute node when the environment starts

     Waiting for input...
     Reading input from standard input

     Current dimensions of program PWSCF are:
     Max number of different atomic species (ntypx) = 10
     Max number of k-points (npk) =  40000
     Max angular momentum in pseudopotentials (lmaxx) =  4

     K-points division:     npool     =       4
     R & G space division:  proc/nbgrp/npool/nimage =      32
     Subspace diagonalization in iterative solution of the eigenvalue problem:
     a serial algorithm will be used


     Parallelization info
     --------------------
     sticks:   dense  smooth     PW     G-vecs:    dense   smooth      PW
     Min          91      91     27                 2364     2364     396
     Max          92      92     28                 2365     2365     399
     Sum        2931    2931    887                75663    75663   12717

     Using Slab Decomposition



     bravais-lattice index     =            7
     lattice parameter (alat)  =      11.0200  a.u.
     unit-cell volume          =     365.0809 (a.u.)^3
     number of atoms/cell      =            2
     number of atomic types    =            1
     number of electrons       =        28.00
     number of Kohn-Sham states=           14
     kinetic-energy cutoff     =     133.0000  Ry
     charge density cutoff     =     532.0000  Ry
     scf convergence threshold =      1.0E-07
     mixing beta               =       0.7000
     number of iterations used =            8  plain     mixing
     Exchange-correlation=  SLA  PW   GGX  GGC
                           (   1   4   2   2   0   0   0)

     celldm(1)=  11.020000  celldm(2)=   0.000000  celldm(3)=   0.545600
     celldm(4)=   0.000000  celldm(5)=   0.000000  celldm(6)=   0.000000

     crystal axes: (cart. coord. in units of alat)
               a(1) = (   0.500000  -0.500000   0.272800 )  
               a(2) = (   0.500000   0.500000   0.272800 )  
               a(3) = (  -0.500000  -0.500000   0.272800 )  

     reciprocal axes: (cart. coord. in units 2 pi/alat)
               b(1) = (  1.000000 -1.000000  0.000000 )  
               b(2) = (  0.000000  1.000000  1.832845 )  
               b(3) = ( -1.000000  0.000000  1.832845 )  


     PseudoPot. # 1 for Sn read from file:
     ./Sn.pw91-n-van.UPF
     MD5 check sum: a38d2a872edd1a4efd76c0a1a38f7031
     Pseudo is Ultrasoft + core correction, Zval = 14.0
     Generated by new atomic code, or converted to UPF format
     Using radial grid of  891 points,  6 beta functions with: 
                l(1) =   0
                l(2) =   0
                l(3) =   1
                l(4) =   1
                l(5) =   2
                l(6) =   2
     Q(r) pseudized with  8 coefficients,  rinner =    1.100   1.100   1.100
                                                       1.100   1.100

     atomic species   valence    mass     pseudopotential
     Sn               14.00   118.70000     Sn( 1.00)

     16 Sym. Ops., with inversion, found (12 have fractional translation)



   Cartesian axes

     site n.     atom                  positions (alat units)
         1        Sn     tau(   1) = (   0.0000000  -0.2500000   0.0682000  )
         2        Sn     tau(   2) = (   0.0000000   0.2500000  -0.0682000  )

     number of k points=    13
                       cart. coord. in units 2pi/alat
        k(    1) = (   0.0000000   0.0000000   0.0000000), wk =   0.0312500
        k(    2) = (  -0.2500000   0.0000000   0.4582111), wk =   0.2500000
        k(    3) = (   0.5000000   0.0000000  -0.9164223), wk =   0.1250000
        k(    4) = (  -0.2500000   0.2500000   0.9164223), wk =   0.2500000
        k(    5) = (   0.5000000   0.2500000  -0.4582111), wk =   0.5000000
        k(    6) = (   0.2500000   0.2500000   0.0000000), wk =   0.1250000
        k(    7) = (   0.5000000  -0.5000000  -1.8328446), wk =   0.0625000
        k(    8) = (   0.0000000   0.0000000   0.9164223), wk =   0.0625000
        k(    9) = (   0.7500000   0.0000000  -0.4582111), wk =   0.2500000
        k(   10) = (   0.5000000   0.0000000   0.0000000), wk =   0.1250000
        k(   11) = (   0.7500000  -0.7500000  -1.8328446), wk =   0.1250000
        k(   12) = (   0.5000000  -0.5000000  -0.9164223), wk =   0.0625000
        k(   13) = (   0.0000000   0.0000000  -1.8328446), wk =   0.0312500

     Dense  grid:    75663 G-vectors     FFT dimensions: (  64,  64,  64)

     Estimated max dynamical RAM per process >       5.60 MB

     Estimated total dynamical RAM >     660.85 MB

     Initial potential from superposition of free atoms

     starting charge      27.9964, renormalised to      28.0000
     Starting wfcs are   18 randomized atomic wfcs

     total cpu time spent up to now is        0.8 secs

     per-process dynamical memory:    11.9 Mb

     Self-consistent Calculation

     iteration #  1     ecut=   133.00 Ry     beta= 0.70
     Davidson diagonalization with overlap
     ethr =  1.00E-02,  avg # of iterations =  1.8

     Threshold (ethr) on eigenvalues was too large:
     Diagonalizing with lowered threshold

     Davidson diagonalization with overlap
     ethr =  2.38E-05,  avg # of iterations =  3.8

     total cpu time spent up to now is        1.0 secs

     total energy              =    -325.58055742 Ry
     estimated scf accuracy    <       0.00684184 Ry

     iteration #  2     ecut=   133.00 Ry     beta= 0.70
     Davidson diagonalization with overlap
     ethr =  2.44E-05,  avg # of iterations =  2.0

     total cpu time spent up to now is        1.1 secs

     total energy              =    -325.58159756 Ry
     estimated scf accuracy    <       0.00054969 Ry

     iteration #  3     ecut=   133.00 Ry     beta= 0.70
     Davidson diagonalization with overlap
     ethr =  1.96E-06,  avg # of iterations =  2.3

     total cpu time spent up to now is        1.2 secs

     total energy              =    -325.58166954 Ry
     estimated scf accuracy    <       0.00004184 Ry

     iteration #  4     ecut=   133.00 Ry     beta= 0.70
     Davidson diagonalization with overlap
     ethr =  1.49E-07,  avg # of iterations =  2.6

     total cpu time spent up to now is        1.3 secs

     total energy              =    -325.58167426 Ry
     estimated scf accuracy    <       0.00000034 Ry

     iteration #  5     ecut=   133.00 Ry     beta= 0.70
     Davidson diagonalization with overlap
     ethr =  1.22E-09,  avg # of iterations =  3.7

     total cpu time spent up to now is        1.4 secs

     End of self-consistent calculation

          k = 0.0000 0.0000 0.0000 (  9451 PWs)   bands (ev):

   -10.8090 -10.7259 -10.6825 -10.6708 -10.5206 -10.5206 -10.5099 -10.5099
   -10.4179 -10.3055  -0.3472   7.1615   8.8397   8.8397

          k =-0.2500 0.0000 0.4582 (  9474 PWs)   bands (ev):

   -10.7731 -10.6451 -10.6405 -10.5993 -10.5767 -10.5355 -10.5269 -10.5041
   -10.4388 -10.3400   0.8911   6.5841   9.0440  11.2832

          k = 0.5000 0.0000-0.9164 (  9466 PWs)   bands (ev):

   -10.7337 -10.6632 -10.6463 -10.6070 -10.5728 -10.5700 -10.4712 -10.4240
   -10.4203 -10.3737   3.8534   5.3957   8.4875   9.1144

          k =-0.2500 0.2500 0.9164 (  9467 PWs)   bands (ev):

   -10.7476 -10.6597 -10.6166 -10.5995 -10.5977 -10.5470 -10.4883 -10.4688
   -10.3925 -10.3646   3.7387   6.0511   7.1233   9.1084

          k = 0.5000 0.2500-0.4582 (  9454 PWs)   bands (ev):

   -10.7163 -10.6568 -10.6531 -10.5991 -10.5820 -10.5247 -10.4911 -10.4834
   -10.4663 -10.4018   2.0035   4.1411   9.3955  10.6281

          k = 0.2500 0.2500 0.0000 (  9459 PWs)   bands (ev):

   -10.7590 -10.7328 -10.6976 -10.6406 -10.5476 -10.5002 -10.4983 -10.4905
   -10.4471 -10.3542   0.2175   4.5878   9.5064  10.5378

          k = 0.5000-0.5000-1.8328 (  9448 PWs)   bands (ev):

   -10.7293 -10.7293 -10.6416 -10.6416 -10.5475 -10.5475 -10.4761 -10.4761
   -10.4369 -10.4369   1.9006   1.9006  11.4184  11.4184

          k = 0.0000 0.0000 0.9164 (  9471 PWs)   bands (ev):

   -10.7394 -10.6313 -10.6313 -10.6118 -10.5670 -10.5670 -10.5431 -10.4496
   -10.3949 -10.3490   3.2955   7.1433   7.9731   9.4589

          k = 0.7500 0.0000-0.4582 (  9456 PWs)   bands (ev):

   -10.7036 -10.6612 -10.5985 -10.5891 -10.5546 -10.5380 -10.5270 -10.4904
   -10.4841 -10.4279   3.0226   4.3598   7.2618   8.4574

          k = 0.5000 0.0000 0.0000 (  9424 PWs)   bands (ev):

   -10.7448 -10.7151 -10.7032 -10.6090 -10.5249 -10.5169 -10.5133 -10.4704
   -10.4681 -10.3990   0.7800   4.3544   7.0799  10.7926

          k = 0.7500-0.7500-1.8328 (  9430 PWs)   bands (ev):

   -10.7358 -10.7358 -10.6037 -10.6037 -10.5397 -10.5397 -10.4903 -10.4903
   -10.4616 -10.4616   2.4050   2.4050   7.9917   7.9917

          k = 0.5000-0.5000-0.9164 (  9460 PWs)   bands (ev):

   -10.7117 -10.7117 -10.6413 -10.6413 -10.5337 -10.5337 -10.4401 -10.4401
   -10.4131 -10.4131   4.8059   4.8059   7.2812   7.2812

          k = 0.0000 0.0000-1.8328 (  9452 PWs)   bands (ev):

   -10.7387 -10.7387 -10.5398 -10.5398 -10.5295 -10.5295 -10.5178 -10.5178
   -10.5053 -10.5053   3.2427   3.2427   6.0120   6.0120

     highest occupied level (ev):    11.4184

!    total energy              =    -325.58167453 Ry
     estimated scf accuracy    <       0.00000001 Ry

     The total energy is the sum of the following terms:
     one-electron contribution =    -107.31915819 Ry
     hartree contribution      =      74.47474224 Ry
     xc contribution           =     -95.22195538 Ry
     ewald contribution        =    -197.51530320 Ry

     convergence has been achieved in   5 iterations

     Writing all to output data dir ./beta-sn-scf/betatin.save/ :
     XML data file, charge density, pseudopotentials, collected wavefunctions

     init_run     :      0.45s CPU      0.51s WALL (       1 calls)
     electrons    :      0.51s CPU      0.59s WALL (       1 calls)

     Called by init_run:
     wfcinit      :      0.09s CPU      0.10s WALL (       1 calls)
     potinit      :      0.02s CPU      0.03s WALL (       1 calls)
     hinit0       :      0.29s CPU      0.31s WALL (       1 calls)

     Called by electrons:
     c_bands      :      0.34s CPU      0.37s WALL (       6 calls)
     sum_band     :      0.09s CPU      0.10s WALL (       6 calls)
     v_of_rho     :      0.05s CPU      0.06s WALL (       6 calls)
     newd         :      0.02s CPU      0.03s WALL (       6 calls)
     mix_rho      :      0.01s CPU      0.01s WALL (       6 calls)

     Called by c_bands:
     init_us_2    :      0.01s CPU      0.01s WALL (      52 calls)
     cegterg      :      0.31s CPU      0.33s WALL (      24 calls)

     Called by *egterg:
     cdiaghg      :      0.03s CPU      0.03s WALL (      92 calls)
     h_psi        :      0.34s CPU      0.36s WALL (     100 calls)
     s_psi        :      0.00s CPU      0.01s WALL (     100 calls)
     g_psi        :      0.00s CPU      0.00s WALL (      72 calls)

     Called by h_psi:
     h_psi:calbec :      0.01s CPU      0.01s WALL (     100 calls)
     vloc_psi     :      0.31s CPU      0.33s WALL (     100 calls)
     add_vuspsi   :      0.01s CPU      0.01s WALL (     100 calls)

     General routines
     calbec       :      0.02s CPU      0.02s WALL (     124 calls)
     fft          :      0.29s CPU      0.29s WALL (      67 calls)
     ffts         :      0.00s CPU      0.00s WALL (       6 calls)
     fftw         :      0.34s CPU      0.35s WALL (    2176 calls)

     Parallel routines

     PWSCF        :      1.24s CPU      1.55s WALL


   This run was terminated on:  16:23:51   5Feb2026            

=------------------------------------------------------------------------------=
   JOB DONE.
=------------------------------------------------------------------------------=
