
     Program PWSCF v.7.3.1 starts on  5Feb2026 at 16: 5:40 

     This program is part of the open-source Quantum ESPRESSO suite
     for quantum simulation of materials; please cite
         "P. Giannozzi et al., J. Phys.:Condens. Matter 21 395502 (2009);
         "P. Giannozzi et al., J. Phys.:Condens. Matter 29 465901 (2017);
         "P. Giannozzi et al., J. Chem. Phys. 152 154105 (2020);
          URL http://www.quantum-espresso.org", 
     in publications or presentations arising from this work. More details at
     http://www.quantum-espresso.org/quote

     Parallel version (MPI), running on   128 processors

     MPI processes distributed on     1 nodes
     241390 MiB available memory on the printing compute node when the environment starts

     Waiting for input...
     Reading input from standard input

     Current dimensions of program PWSCF are:
     Max number of different atomic species (ntypx) = 10
     Max number of k-points (npk) =  40000
     Max angular momentum in pseudopotentials (lmaxx) =  4

     K-points division:     npool     =       8
     R & G space division:  proc/nbgrp/npool/nimage =      16
     Subspace diagonalization in iterative solution of the eigenvalue problem:
     a serial algorithm will be used


     Parallelization info
     --------------------
     sticks:   dense  smooth     PW     G-vecs:    dense   smooth      PW
     Min          40      40     14                  484      484     110
     Max          41      41     15                  485      485     111
     Sum         643     643    239                 7747     7747    1771

     Using Slab Decomposition



     bravais-lattice index     =            7
     lattice parameter (alat)  =      11.0200  a.u.
     unit-cell volume          =     365.0809 (a.u.)^3
     number of atoms/cell      =            2
     number of atomic types    =            1
     number of electrons       =        28.00
     number of Kohn-Sham states=           14
     kinetic-energy cutoff     =      29.0000  Ry
     charge density cutoff     =     116.0000  Ry
     scf convergence threshold =      1.0E-07
     mixing beta               =       0.7000
     number of iterations used =            8  plain     mixing
     Exchange-correlation=  SLA  PW   GGX  GGC
                           (   1   4   2   2   0   0   0)

     celldm(1)=  11.020000  celldm(2)=   0.000000  celldm(3)=   0.545600
     celldm(4)=   0.000000  celldm(5)=   0.000000  celldm(6)=   0.000000

     crystal axes: (cart. coord. in units of alat)
               a(1) = (   0.500000  -0.500000   0.272800 )  
               a(2) = (   0.500000   0.500000   0.272800 )  
               a(3) = (  -0.500000  -0.500000   0.272800 )  

     reciprocal axes: (cart. coord. in units 2 pi/alat)
               b(1) = (  1.000000 -1.000000  0.000000 )  
               b(2) = (  0.000000  1.000000  1.832845 )  
               b(3) = ( -1.000000  0.000000  1.832845 )  


     PseudoPot. # 1 for Sn read from file:
     ./Sn.pw91-n-van.UPF
     MD5 check sum: a38d2a872edd1a4efd76c0a1a38f7031
     Pseudo is Ultrasoft + core correction, Zval = 14.0
     Generated by new atomic code, or converted to UPF format
     Using radial grid of  891 points,  6 beta functions with: 
                l(1) =   0
                l(2) =   0
                l(3) =   1
                l(4) =   1
                l(5) =   2
                l(6) =   2
     Q(r) pseudized with  8 coefficients,  rinner =    1.100   1.100   1.100
                                                       1.100   1.100

     atomic species   valence    mass     pseudopotential
     Sn               14.00   118.70000     Sn( 1.00)

     16 Sym. Ops., with inversion, found (12 have fractional translation)



   Cartesian axes

     site n.     atom                  positions (alat units)
         1        Sn     tau(   1) = (   0.0000000  -0.2500000   0.0682000  )
         2        Sn     tau(   2) = (   0.0000000   0.2500000  -0.0682000  )

     number of k points=    13
                       cart. coord. in units 2pi/alat
        k(    1) = (   0.0000000   0.0000000   0.0000000), wk =   0.0312500
        k(    2) = (  -0.2500000   0.0000000   0.4582111), wk =   0.2500000
        k(    3) = (   0.5000000   0.0000000  -0.9164223), wk =   0.1250000
        k(    4) = (  -0.2500000   0.2500000   0.9164223), wk =   0.2500000
        k(    5) = (   0.5000000   0.2500000  -0.4582111), wk =   0.5000000
        k(    6) = (   0.2500000   0.2500000   0.0000000), wk =   0.1250000
        k(    7) = (   0.5000000  -0.5000000  -1.8328446), wk =   0.0625000
        k(    8) = (   0.0000000   0.0000000   0.9164223), wk =   0.0625000
        k(    9) = (   0.7500000   0.0000000  -0.4582111), wk =   0.2500000
        k(   10) = (   0.5000000   0.0000000   0.0000000), wk =   0.1250000
        k(   11) = (   0.7500000  -0.7500000  -1.8328446), wk =   0.1250000
        k(   12) = (   0.5000000  -0.5000000  -0.9164223), wk =   0.0625000
        k(   13) = (   0.0000000   0.0000000  -1.8328446), wk =   0.0312500

     Dense  grid:     7747 G-vectors     FFT dimensions: (  30,  30,  30)

     Estimated max dynamical RAM per process >       1.44 MB

     Estimated total dynamical RAM >     171.22 MB

     Initial potential from superposition of free atoms

     starting charge      27.9964, renormalised to      28.0000
     Starting wfcs are   18 randomized atomic wfcs

     total cpu time spent up to now is        0.5 secs

     per-process dynamical memory:     8.8 Mb

     Self-consistent Calculation

     iteration #  1     ecut=    29.00 Ry     beta= 0.70
     Davidson diagonalization with overlap
     ethr =  1.00E-02,  avg # of iterations =  1.8

     Threshold (ethr) on eigenvalues was too large:
     Diagonalizing with lowered threshold

     Davidson diagonalization with overlap
     ethr =  2.53E-05,  avg # of iterations =  3.9

     total cpu time spent up to now is        0.6 secs

     total energy              =    -325.54288722 Ry
     estimated scf accuracy    <       0.00712335 Ry

     iteration #  2     ecut=    29.00 Ry     beta= 0.70
     Davidson diagonalization with overlap
     ethr =  2.54E-05,  avg # of iterations =  2.0

     total cpu time spent up to now is        0.6 secs

     total energy              =    -325.54380745 Ry
     estimated scf accuracy    <       0.00056949 Ry

     iteration #  3     ecut=    29.00 Ry     beta= 0.70
     Davidson diagonalization with overlap
     ethr =  2.03E-06,  avg # of iterations =  2.0

     total cpu time spent up to now is        0.7 secs

     total energy              =    -325.54386602 Ry
     estimated scf accuracy    <       0.00004091 Ry

     iteration #  4     ecut=    29.00 Ry     beta= 0.70
     Davidson diagonalization with overlap
     ethr =  1.46E-07,  avg # of iterations =  3.2

     total cpu time spent up to now is        0.7 secs

     total energy              =    -325.54387265 Ry
     estimated scf accuracy    <       0.00000075 Ry

     iteration #  5     ecut=    29.00 Ry     beta= 0.70
     Davidson diagonalization with overlap
     ethr =  2.66E-09,  avg # of iterations =  3.2

     total cpu time spent up to now is        0.7 secs

     End of self-consistent calculation

          k = 0.0000 0.0000 0.0000 (   973 PWs)   bands (ev):

   -10.7849 -10.7040 -10.6612 -10.6488 -10.4970 -10.4970 -10.4854 -10.4854
   -10.3953 -10.2806  -0.3486   7.1565   8.8404   8.8404

          k =-0.2500 0.0000 0.4582 (   964 PWs)   bands (ev):

   -10.7489 -10.6234 -10.6171 -10.5755 -10.5530 -10.5110 -10.5031 -10.4803
   -10.4163 -10.3153   0.8896   6.5804   9.0452  11.2833

          k = 0.5000 0.0000-0.9164 (   968 PWs)   bands (ev):

   -10.7096 -10.6393 -10.6236 -10.5829 -10.5502 -10.5454 -10.4486 -10.3995
   -10.3955 -10.3490   3.8506   5.3946   8.4856   9.1153

          k =-0.2500 0.2500 0.9164 (   971 PWs)   bands (ev):

   -10.7237 -10.6363 -10.5924 -10.5769 -10.5735 -10.5233 -10.4642 -10.4459
   -10.3678 -10.3398   3.7363   6.0482   7.1243   9.1093

          k = 0.5000 0.2500-0.4582 (   958 PWs)   bands (ev):

   -10.6923 -10.6332 -10.6296 -10.5754 -10.5594 -10.5010 -10.4682 -10.4599
   -10.4421 -10.3772   2.0018   4.1389   9.3959  10.6293

          k = 0.2500 0.2500 0.0000 (   961 PWs)   bands (ev):

   -10.7348 -10.7108 -10.6755 -10.6189 -10.5233 -10.4761 -10.4746 -10.4660
   -10.4245 -10.3295   0.2160   4.5856   9.5074  10.5372

          k = 0.5000-0.5000-1.8328 (   962 PWs)   bands (ev):

   -10.7071 -10.7071 -10.6170 -10.6170 -10.5251 -10.5251 -10.4522 -10.4522
   -10.4127 -10.4127   1.8990   1.8990  11.4199  11.4199

          k = 0.0000 0.0000 0.9164 (   965 PWs)   bands (ev):

   -10.7147 -10.6081 -10.6081 -10.5899 -10.5424 -10.5424 -10.5187 -10.4268
   -10.3703 -10.3244   3.2933   7.1398   7.9735   9.4602

          k = 0.7500 0.0000-0.4582 (   967 PWs)   bands (ev):

   -10.6793 -10.6375 -10.5746 -10.5661 -10.5314 -10.5135 -10.5031 -10.4676
   -10.4602 -10.4036   3.0206   4.3570   7.2634   8.4580

          k = 0.5000 0.0000 0.0000 (   955 PWs)   bands (ev):

   -10.7218 -10.6928 -10.6797 -10.5871 -10.5008 -10.4931 -10.4891 -10.4463
   -10.4453 -10.3745   0.7785   4.3517   7.0814  10.7934

          k = 0.7500-0.7500-1.8328 (   958 PWs)   bands (ev):

   -10.7132 -10.7132 -10.5795 -10.5795 -10.5171 -10.5171 -10.4662 -10.4662
   -10.4374 -10.4374   2.4032   2.4032   7.9926   7.9926

          k = 0.5000-0.5000-0.9164 (   956 PWs)   bands (ev):

   -10.6881 -10.6881 -10.6175 -10.6175 -10.5112 -10.5112 -10.4155 -10.4155
   -10.3885 -10.3885   4.8028   4.8028   7.2828   7.2828

          k = 0.0000 0.0000-1.8328 (   978 PWs)   bands (ev):

   -10.7158 -10.7158 -10.5160 -10.5160 -10.5066 -10.5066 -10.4937 -10.4937
   -10.4804 -10.4804   3.2404   3.2404   6.0135   6.0135

     highest occupied level (ev):    11.4199

!    total energy              =    -325.54387291 Ry
     estimated scf accuracy    <       0.00000009 Ry

     The total energy is the sum of the following terms:
     one-electron contribution =    -107.27341115 Ry
     hartree contribution      =      74.47108301 Ry
     xc contribution           =     -95.22624157 Ry
     ewald contribution        =    -197.51530321 Ry

     convergence has been achieved in   5 iterations

     Writing all to output data dir ./beta-sn-scf/betatin.save/ :
     XML data file, charge density, pseudopotentials, collected wavefunctions

     init_run     :      0.20s CPU      0.27s WALL (       1 calls)
     electrons    :      0.10s CPU      0.17s WALL (       1 calls)

     Called by init_run:
     wfcinit      :      0.00s CPU      0.02s WALL (       1 calls)
     potinit      :      0.01s CPU      0.02s WALL (       1 calls)
     hinit0       :      0.19s CPU      0.19s WALL (       1 calls)

     Called by electrons:
     c_bands      :      0.07s CPU      0.09s WALL (       6 calls)
     sum_band     :      0.01s CPU      0.03s WALL (       6 calls)
     v_of_rho     :      0.01s CPU      0.02s WALL (       6 calls)
     newd         :      0.00s CPU      0.01s WALL (       6 calls)
     mix_rho      :      0.00s CPU      0.00s WALL (       6 calls)

     Called by c_bands:
     init_us_2    :      0.00s CPU      0.00s WALL (      26 calls)
     cegterg      :      0.06s CPU      0.08s WALL (      12 calls)

     Called by *egterg:
     cdiaghg      :      0.01s CPU      0.02s WALL (      50 calls)
     h_psi        :      0.04s CPU      0.06s WALL (      54 calls)
     s_psi        :      0.00s CPU      0.00s WALL (      54 calls)
     g_psi        :      0.00s CPU      0.00s WALL (      40 calls)

     Called by h_psi:
     h_psi:calbec :      0.00s CPU      0.00s WALL (      54 calls)
     vloc_psi     :      0.03s CPU      0.05s WALL (      54 calls)
     add_vuspsi   :      0.00s CPU      0.00s WALL (      54 calls)

     General routines
     calbec       :      0.00s CPU      0.00s WALL (      66 calls)
     fft          :      0.16s CPU      0.17s WALL (      67 calls)
     ffts         :      0.00s CPU      0.00s WALL (       6 calls)
     fftw         :      0.04s CPU      0.06s WALL (    1082 calls)

     Parallel routines

     PWSCF        :      0.53s CPU      0.81s WALL


   This run was terminated on:  16: 5:41   5Feb2026            

=------------------------------------------------------------------------------=
   JOB DONE.
=------------------------------------------------------------------------------=
