
     Program PWSCF v.7.3.1 starts on  5Feb2026 at 16:33: 4 

     This program is part of the open-source Quantum ESPRESSO suite
     for quantum simulation of materials; please cite
         "P. Giannozzi et al., J. Phys.:Condens. Matter 21 395502 (2009);
         "P. Giannozzi et al., J. Phys.:Condens. Matter 29 465901 (2017);
         "P. Giannozzi et al., J. Chem. Phys. 152 154105 (2020);
          URL http://www.quantum-espresso.org", 
     in publications or presentations arising from this work. More details at
     http://www.quantum-espresso.org/quote

     Parallel version (MPI), running on   128 processors

     MPI processes distributed on     1 nodes
     241306 MiB available memory on the printing compute node when the environment starts

     Waiting for input...
     Reading input from standard input

     Current dimensions of program PWSCF are:
     Max number of different atomic species (ntypx) = 10
     Max number of k-points (npk) =  40000
     Max angular momentum in pseudopotentials (lmaxx) =  4

     K-points division:     npool     =       4
     R & G space division:  proc/nbgrp/npool/nimage =      32
     Subspace diagonalization in iterative solution of the eigenvalue problem:
     a serial algorithm will be used


     Parallelization info
     --------------------
     sticks:   dense  smooth     PW     G-vecs:    dense   smooth      PW
     Min         124     124     37                 3751     3751     605
     Max         125     125     38                 3754     3754     608
     Sum        3971    3971   1185               120073   120073   19423

     Using Slab Decomposition



     bravais-lattice index     =            7
     lattice parameter (alat)  =      11.0200  a.u.
     unit-cell volume          =     365.0809 (a.u.)^3
     number of atoms/cell      =            2
     number of atomic types    =            1
     number of electrons       =        28.00
     number of Kohn-Sham states=           14
     kinetic-energy cutoff     =     181.0000  Ry
     charge density cutoff     =     724.0000  Ry
     scf convergence threshold =      1.0E-07
     mixing beta               =       0.7000
     number of iterations used =            8  plain     mixing
     Exchange-correlation=  SLA  PW   GGX  GGC
                           (   1   4   2   2   0   0   0)

     celldm(1)=  11.020000  celldm(2)=   0.000000  celldm(3)=   0.545600
     celldm(4)=   0.000000  celldm(5)=   0.000000  celldm(6)=   0.000000

     crystal axes: (cart. coord. in units of alat)
               a(1) = (   0.500000  -0.500000   0.272800 )  
               a(2) = (   0.500000   0.500000   0.272800 )  
               a(3) = (  -0.500000  -0.500000   0.272800 )  

     reciprocal axes: (cart. coord. in units 2 pi/alat)
               b(1) = (  1.000000 -1.000000  0.000000 )  
               b(2) = (  0.000000  1.000000  1.832845 )  
               b(3) = ( -1.000000  0.000000  1.832845 )  


     PseudoPot. # 1 for Sn read from file:
     ./Sn.pw91-n-van.UPF
     MD5 check sum: a38d2a872edd1a4efd76c0a1a38f7031
     Pseudo is Ultrasoft + core correction, Zval = 14.0
     Generated by new atomic code, or converted to UPF format
     Using radial grid of  891 points,  6 beta functions with: 
                l(1) =   0
                l(2) =   0
                l(3) =   1
                l(4) =   1
                l(5) =   2
                l(6) =   2
     Q(r) pseudized with  8 coefficients,  rinner =    1.100   1.100   1.100
                                                       1.100   1.100

     atomic species   valence    mass     pseudopotential
     Sn               14.00   118.70000     Sn( 1.00)

     16 Sym. Ops., with inversion, found (12 have fractional translation)



   Cartesian axes

     site n.     atom                  positions (alat units)
         1        Sn     tau(   1) = (   0.0000000  -0.2500000   0.0682000  )
         2        Sn     tau(   2) = (   0.0000000   0.2500000  -0.0682000  )

     number of k points=    13
                       cart. coord. in units 2pi/alat
        k(    1) = (   0.0000000   0.0000000   0.0000000), wk =   0.0312500
        k(    2) = (  -0.2500000   0.0000000   0.4582111), wk =   0.2500000
        k(    3) = (   0.5000000   0.0000000  -0.9164223), wk =   0.1250000
        k(    4) = (  -0.2500000   0.2500000   0.9164223), wk =   0.2500000
        k(    5) = (   0.5000000   0.2500000  -0.4582111), wk =   0.5000000
        k(    6) = (   0.2500000   0.2500000   0.0000000), wk =   0.1250000
        k(    7) = (   0.5000000  -0.5000000  -1.8328446), wk =   0.0625000
        k(    8) = (   0.0000000   0.0000000   0.9164223), wk =   0.0625000
        k(    9) = (   0.7500000   0.0000000  -0.4582111), wk =   0.2500000
        k(   10) = (   0.5000000   0.0000000   0.0000000), wk =   0.1250000
        k(   11) = (   0.7500000  -0.7500000  -1.8328446), wk =   0.1250000
        k(   12) = (   0.5000000  -0.5000000  -0.9164223), wk =   0.0625000
        k(   13) = (   0.0000000   0.0000000  -1.8328446), wk =   0.0312500

     Dense  grid:   120073 G-vectors     FFT dimensions: (  72,  72,  72)

     Estimated max dynamical RAM per process >       8.28 MB

     Estimated total dynamical RAM >     971.76 MB

     Initial potential from superposition of free atoms

     starting charge      27.9964, renormalised to      28.0000
     Starting wfcs are   18 randomized atomic wfcs

     total cpu time spent up to now is        1.1 secs

     per-process dynamical memory:    15.0 Mb

     Self-consistent Calculation

     iteration #  1     ecut=   181.00 Ry     beta= 0.70
     Davidson diagonalization with overlap
     ethr =  1.00E-02,  avg # of iterations =  2.0

     Threshold (ethr) on eigenvalues was too large:
     Diagonalizing with lowered threshold

     Davidson diagonalization with overlap
     ethr =  2.27E-05,  avg # of iterations =  3.8

     total cpu time spent up to now is        1.4 secs

     total energy              =    -325.58536585 Ry
     estimated scf accuracy    <       0.00678004 Ry

     iteration #  2     ecut=   181.00 Ry     beta= 0.70
     Davidson diagonalization with overlap
     ethr =  2.42E-05,  avg # of iterations =  2.0

     total cpu time spent up to now is        1.6 secs

     total energy              =    -325.58735480 Ry
     estimated scf accuracy    <       0.00045831 Ry

     iteration #  3     ecut=   181.00 Ry     beta= 0.70
     Davidson diagonalization with overlap
     ethr =  1.64E-06,  avg # of iterations =  2.5

     total cpu time spent up to now is        1.7 secs

     total energy              =    -325.58748044 Ry
     estimated scf accuracy    <       0.00003266 Ry

     iteration #  4     ecut=   181.00 Ry     beta= 0.70
     Davidson diagonalization with overlap
     ethr =  1.17E-07,  avg # of iterations =  2.5

     total cpu time spent up to now is        1.8 secs

     total energy              =    -325.58748435 Ry
     estimated scf accuracy    <       0.00000031 Ry

     iteration #  5     ecut=   181.00 Ry     beta= 0.70
     Davidson diagonalization with overlap
     ethr =  1.12E-09,  avg # of iterations =  4.3

     total cpu time spent up to now is        2.0 secs

     End of self-consistent calculation

          k = 0.0000 0.0000 0.0000 ( 14985 PWs)   bands (ev):

   -10.8109 -10.7281 -10.6843 -10.6727 -10.5228 -10.5228 -10.5117 -10.5117
   -10.4199 -10.3078  -0.3470   7.1618   8.8398   8.8398

          k =-0.2500 0.0000 0.4582 ( 15001 PWs)   bands (ev):

   -10.7750 -10.6471 -10.6423 -10.6011 -10.5787 -10.5374 -10.5290 -10.5060
   -10.4409 -10.3424   0.8912   6.5844   9.0440  11.2833

          k = 0.5000 0.0000-0.9164 ( 15032 PWs)   bands (ev):

   -10.7356 -10.6651 -10.6483 -10.6089 -10.5749 -10.5719 -10.4732 -10.4261
   -10.4223 -10.3759   3.8536   5.3959   8.4877   9.1145

          k =-0.2500 0.2500 0.9164 ( 15016 PWs)   bands (ev):

   -10.7495 -10.6617 -10.6185 -10.6015 -10.5996 -10.5491 -10.4903 -10.4709
   -10.3945 -10.3668   3.7389   6.0513   7.1234   9.1085

          k = 0.5000 0.2500-0.4582 ( 15008 PWs)   bands (ev):

   -10.7182 -10.6587 -10.6550 -10.6011 -10.5840 -10.5268 -10.4932 -10.4855
   -10.4683 -10.4040   2.0037   4.1413   9.3956  10.6281

          k = 0.2500 0.2500 0.0000 ( 15003 PWs)   bands (ev):

   -10.7609 -10.7348 -10.6996 -10.6426 -10.5495 -10.5021 -10.5004 -10.4925
   -10.4492 -10.3565   0.2176   4.5880   9.5064  10.5379

          k = 0.5000-0.5000-1.8328 ( 14990 PWs)   bands (ev):

   -10.7313 -10.7313 -10.6435 -10.6435 -10.5495 -10.5495 -10.4781 -10.4781
   -10.4390 -10.4390   1.9008   1.9008  11.4183  11.4183

          k = 0.0000 0.0000 0.9164 ( 15045 PWs)   bands (ev):

   -10.7412 -10.6333 -10.6333 -10.6139 -10.5689 -10.5689 -10.5450 -10.4517
   -10.3970 -10.3513   3.2956   7.1436   7.9733   9.4589

          k = 0.7500 0.0000-0.4582 ( 15046 PWs)   bands (ev):

   -10.7055 -10.6631 -10.6005 -10.5911 -10.5567 -10.5399 -10.5291 -10.4925
   -10.4862 -10.4301   3.0228   4.3601   7.2617   8.4574

          k = 0.5000 0.0000 0.0000 ( 15024 PWs)   bands (ev):

   -10.7468 -10.7171 -10.7052 -10.6112 -10.5270 -10.5190 -10.5153 -10.4724
   -10.4702 -10.4013   0.7802   4.3546   7.0799  10.7926

          k = 0.7500-0.7500-1.8328 ( 15000 PWs)   bands (ev):

   -10.7377 -10.7377 -10.6057 -10.6057 -10.5418 -10.5418 -10.4924 -10.4924
   -10.4637 -10.4637   2.4051   2.4051   7.9917   7.9917

          k = 0.5000-0.5000-0.9164 ( 15036 PWs)   bands (ev):

   -10.7137 -10.7137 -10.6432 -10.6432 -10.5358 -10.5358 -10.4422 -10.4422
   -10.4151 -10.4151   4.8061   4.8061   7.2812   7.2812

          k = 0.0000 0.0000-1.8328 ( 14980 PWs)   bands (ev):

   -10.7406 -10.7406 -10.5420 -10.5420 -10.5315 -10.5315 -10.5198 -10.5198
   -10.5071 -10.5071   3.2429   3.2429   6.0120   6.0120

     highest occupied level (ev):    11.4183

!    total energy              =    -325.58748459 Ry
     estimated scf accuracy    <       0.00000002 Ry

     The total energy is the sum of the following terms:
     one-electron contribution =    -107.32685150 Ry
     hartree contribution      =      74.47725744 Ry
     xc contribution           =     -95.22258733 Ry
     ewald contribution        =    -197.51530320 Ry

     convergence has been achieved in   5 iterations

     Writing all to output data dir ./beta-sn-scf/betatin.save/ :
     XML data file, charge density, pseudopotentials, collected wavefunctions

     init_run     :      0.76s CPU      0.81s WALL (       1 calls)
     electrons    :      0.84s CPU      0.97s WALL (       1 calls)

     Called by init_run:
     wfcinit      :      0.06s CPU      0.07s WALL (       1 calls)
     potinit      :      0.04s CPU      0.04s WALL (       1 calls)
     hinit0       :      0.59s CPU      0.60s WALL (       1 calls)

     Called by electrons:
     c_bands      :      0.57s CPU      0.62s WALL (       6 calls)
     sum_band     :      0.15s CPU      0.17s WALL (       6 calls)
     v_of_rho     :      0.08s CPU      0.09s WALL (       6 calls)
     newd         :      0.04s CPU      0.04s WALL (       6 calls)
     mix_rho      :      0.01s CPU      0.01s WALL (       6 calls)

     Called by c_bands:
     init_us_2    :      0.01s CPU      0.01s WALL (      52 calls)
     cegterg      :      0.53s CPU      0.57s WALL (      24 calls)

     Called by *egterg:
     cdiaghg      :      0.03s CPU      0.03s WALL (      99 calls)
     h_psi        :      0.51s CPU      0.54s WALL (     107 calls)
     s_psi        :      0.01s CPU      0.01s WALL (     107 calls)
     g_psi        :      0.00s CPU      0.00s WALL (      79 calls)

     Called by h_psi:
     h_psi:calbec :      0.01s CPU      0.02s WALL (     107 calls)
     vloc_psi     :      0.49s CPU      0.51s WALL (     107 calls)
     add_vuspsi   :      0.01s CPU      0.01s WALL (     107 calls)

     General routines
     calbec       :      0.02s CPU      0.02s WALL (     131 calls)
     fft          :      0.59s CPU      0.59s WALL (      67 calls)
     ffts         :      0.00s CPU      0.00s WALL (       6 calls)
     fftw         :      0.52s CPU      0.54s WALL (    2180 calls)

     Parallel routines

     PWSCF        :      1.85s CPU      2.36s WALL


   This run was terminated on:  16:33: 6   5Feb2026            

=------------------------------------------------------------------------------=
   JOB DONE.
=------------------------------------------------------------------------------=
