
     Program PWSCF v.7.3.1 starts on  5Feb2026 at 16: 5:19 

     This program is part of the open-source Quantum ESPRESSO suite
     for quantum simulation of materials; please cite
         "P. Giannozzi et al., J. Phys.:Condens. Matter 21 395502 (2009);
         "P. Giannozzi et al., J. Phys.:Condens. Matter 29 465901 (2017);
         "P. Giannozzi et al., J. Chem. Phys. 152 154105 (2020);
          URL http://www.quantum-espresso.org", 
     in publications or presentations arising from this work. More details at
     http://www.quantum-espresso.org/quote

     Parallel version (MPI), running on   128 processors

     MPI processes distributed on     1 nodes
     241477 MiB available memory on the printing compute node when the environment starts

     Waiting for input...
     Reading input from standard input

     Current dimensions of program PWSCF are:
     Max number of different atomic species (ntypx) = 10
     Max number of k-points (npk) =  40000
     Max angular momentum in pseudopotentials (lmaxx) =  4

     K-points division:     npool     =       8
     R & G space division:  proc/nbgrp/npool/nimage =      16
     Subspace diagonalization in iterative solution of the eigenvalue problem:
     a serial algorithm will be used


     Parallelization info
     --------------------
     sticks:   dense  smooth     PW     G-vecs:    dense   smooth      PW
     Min          36      36     13                  428      428      99
     Max          37      37     14                  430      430     101
     Sum         591     591    223                 6877     6877    1607

     Using Slab Decomposition



     bravais-lattice index     =            7
     lattice parameter (alat)  =      11.0200  a.u.
     unit-cell volume          =     365.0809 (a.u.)^3
     number of atoms/cell      =            2
     number of atomic types    =            1
     number of electrons       =        28.00
     number of Kohn-Sham states=           14
     kinetic-energy cutoff     =      27.0000  Ry
     charge density cutoff     =     108.0000  Ry
     scf convergence threshold =      1.0E-07
     mixing beta               =       0.7000
     number of iterations used =            8  plain     mixing
     Exchange-correlation=  SLA  PW   GGX  GGC
                           (   1   4   2   2   0   0   0)

     celldm(1)=  11.020000  celldm(2)=   0.000000  celldm(3)=   0.545600
     celldm(4)=   0.000000  celldm(5)=   0.000000  celldm(6)=   0.000000

     crystal axes: (cart. coord. in units of alat)
               a(1) = (   0.500000  -0.500000   0.272800 )  
               a(2) = (   0.500000   0.500000   0.272800 )  
               a(3) = (  -0.500000  -0.500000   0.272800 )  

     reciprocal axes: (cart. coord. in units 2 pi/alat)
               b(1) = (  1.000000 -1.000000  0.000000 )  
               b(2) = (  0.000000  1.000000  1.832845 )  
               b(3) = ( -1.000000  0.000000  1.832845 )  


     PseudoPot. # 1 for Sn read from file:
     ./Sn.pw91-n-van.UPF
     MD5 check sum: a38d2a872edd1a4efd76c0a1a38f7031
     Pseudo is Ultrasoft + core correction, Zval = 14.0
     Generated by new atomic code, or converted to UPF format
     Using radial grid of  891 points,  6 beta functions with: 
                l(1) =   0
                l(2) =   0
                l(3) =   1
                l(4) =   1
                l(5) =   2
                l(6) =   2
     Q(r) pseudized with  8 coefficients,  rinner =    1.100   1.100   1.100
                                                       1.100   1.100

     atomic species   valence    mass     pseudopotential
     Sn               14.00   118.70000     Sn( 1.00)

     16 Sym. Ops., with inversion, found (12 have fractional translation)



   Cartesian axes

     site n.     atom                  positions (alat units)
         1        Sn     tau(   1) = (   0.0000000  -0.2500000   0.0682000  )
         2        Sn     tau(   2) = (   0.0000000   0.2500000  -0.0682000  )

     number of k points=    13
                       cart. coord. in units 2pi/alat
        k(    1) = (   0.0000000   0.0000000   0.0000000), wk =   0.0312500
        k(    2) = (  -0.2500000   0.0000000   0.4582111), wk =   0.2500000
        k(    3) = (   0.5000000   0.0000000  -0.9164223), wk =   0.1250000
        k(    4) = (  -0.2500000   0.2500000   0.9164223), wk =   0.2500000
        k(    5) = (   0.5000000   0.2500000  -0.4582111), wk =   0.5000000
        k(    6) = (   0.2500000   0.2500000   0.0000000), wk =   0.1250000
        k(    7) = (   0.5000000  -0.5000000  -1.8328446), wk =   0.0625000
        k(    8) = (   0.0000000   0.0000000   0.9164223), wk =   0.0625000
        k(    9) = (   0.7500000   0.0000000  -0.4582111), wk =   0.2500000
        k(   10) = (   0.5000000   0.0000000   0.0000000), wk =   0.1250000
        k(   11) = (   0.7500000  -0.7500000  -1.8328446), wk =   0.1250000
        k(   12) = (   0.5000000  -0.5000000  -0.9164223), wk =   0.0625000
        k(   13) = (   0.0000000   0.0000000  -1.8328446), wk =   0.0312500

     Dense  grid:     6877 G-vectors     FFT dimensions: (  30,  30,  30)

     Estimated max dynamical RAM per process >       1.36 MB

     Estimated total dynamical RAM >     162.32 MB

     Initial potential from superposition of free atoms

     starting charge      27.9964, renormalised to      28.0000
     Starting wfcs are   18 randomized atomic wfcs

     total cpu time spent up to now is        0.6 secs

     per-process dynamical memory:     8.9 Mb

     Self-consistent Calculation

     iteration #  1     ecut=    27.00 Ry     beta= 0.70
     Davidson diagonalization with overlap
     ethr =  1.00E-02,  avg # of iterations =  1.8

     Threshold (ethr) on eigenvalues was too large:
     Diagonalizing with lowered threshold

     Davidson diagonalization with overlap
     ethr =  2.53E-05,  avg # of iterations =  3.8

     total cpu time spent up to now is        0.6 secs

     total energy              =    -325.54112193 Ry
     estimated scf accuracy    <       0.00716391 Ry

     iteration #  2     ecut=    27.00 Ry     beta= 0.70
     Davidson diagonalization with overlap
     ethr =  2.56E-05,  avg # of iterations =  2.0

     total cpu time spent up to now is        0.7 secs

     total energy              =    -325.54206170 Ry
     estimated scf accuracy    <       0.00056757 Ry

     iteration #  3     ecut=    27.00 Ry     beta= 0.70
     Davidson diagonalization with overlap
     ethr =  2.03E-06,  avg # of iterations =  2.4

     total cpu time spent up to now is        0.7 secs

     total energy              =    -325.54212533 Ry
     estimated scf accuracy    <       0.00004159 Ry

     iteration #  4     ecut=    27.00 Ry     beta= 0.70
     Davidson diagonalization with overlap
     ethr =  1.49E-07,  avg # of iterations =  3.1

     total cpu time spent up to now is        0.7 secs

     total energy              =    -325.54213079 Ry
     estimated scf accuracy    <       0.00000039 Ry

     iteration #  5     ecut=    27.00 Ry     beta= 0.70
     Davidson diagonalization with overlap
     ethr =  1.38E-09,  avg # of iterations =  3.7

     total cpu time spent up to now is        0.7 secs

     End of self-consistent calculation

          k = 0.0000 0.0000 0.0000 (   845 PWs)   bands (ev):

   -10.7883 -10.7080 -10.6651 -10.6530 -10.5005 -10.5005 -10.4890 -10.4890
   -10.3996 -10.2842  -0.3485   7.1566   8.8405   8.8405

          k =-0.2500 0.0000 0.4582 (   864 PWs)   bands (ev):

   -10.7529 -10.6269 -10.6211 -10.5795 -10.5565 -10.5150 -10.5068 -10.4843
   -10.4200 -10.3193   0.8896   6.5805   9.0452  11.2832

          k = 0.5000 0.0000-0.9164 (   864 PWs)   bands (ev):

   -10.7133 -10.6429 -10.6273 -10.5871 -10.5540 -10.5489 -10.4526 -10.4034
   -10.3990 -10.3520   3.8508   5.3946   8.4854   9.1151

          k =-0.2500 0.2500 0.9164 (   872 PWs)   bands (ev):

   -10.7275 -10.6405 -10.5963 -10.5805 -10.5773 -10.5274 -10.4682 -10.4498
   -10.3719 -10.3435   3.7364   6.0483   7.1240   9.1091

          k = 0.5000 0.2500-0.4582 (   868 PWs)   bands (ev):

   -10.6963 -10.6371 -10.6335 -10.5791 -10.5630 -10.5045 -10.4721 -10.4638
   -10.4458 -10.3811   2.0019   4.1390   9.3959  10.6291

          k = 0.2500 0.2500 0.0000 (   859 PWs)   bands (ev):

   -10.7392 -10.7149 -10.6793 -10.6228 -10.5279 -10.4803 -10.4789 -10.4699
   -10.4289 -10.3333   0.2161   4.5857   9.5074  10.5370

          k = 0.5000-0.5000-1.8328 (   852 PWs)   bands (ev):

   -10.7110 -10.7110 -10.6209 -10.6209 -10.5290 -10.5290 -10.4562 -10.4562
   -10.4168 -10.4168   1.8991   1.8991  11.4199  11.4199

          k = 0.0000 0.0000 0.9164 (   877 PWs)   bands (ev):

   -10.7191 -10.6124 -10.6124 -10.5941 -10.5465 -10.5465 -10.5230 -10.4312
   -10.3746 -10.3282   3.2934   7.1398   7.9732   9.4602

          k = 0.7500 0.0000-0.4582 (   866 PWs)   bands (ev):

   -10.6833 -10.6414 -10.5786 -10.5701 -10.5350 -10.5169 -10.5071 -10.4716
   -10.4637 -10.4070   3.0207   4.3571   7.2633   8.4580

          k = 0.5000 0.0000 0.0000 (   861 PWs)   bands (ev):

   -10.7256 -10.6966 -10.6838 -10.5909 -10.5046 -10.4977 -10.4929 -10.4501
   -10.4492 -10.3778   0.7786   4.3518   7.0813  10.7933

          k = 0.7500-0.7500-1.8328 (   860 PWs)   bands (ev):

   -10.7171 -10.7171 -10.5831 -10.5831 -10.5205 -10.5205 -10.4694 -10.4694
   -10.4408 -10.4408   2.4033   2.4033   7.9925   7.9925

          k = 0.5000-0.5000-0.9164 (   864 PWs)   bands (ev):

   -10.6912 -10.6912 -10.6207 -10.6207 -10.5142 -10.5142 -10.4188 -10.4188
   -10.3927 -10.3927   4.8030   4.8030   7.2825   7.2825

          k = 0.0000 0.0000-1.8328 (   872 PWs)   bands (ev):

   -10.7194 -10.7194 -10.5187 -10.5187 -10.5095 -10.5095 -10.4984 -10.4984
   -10.4849 -10.4849   3.2404   3.2404   6.0134   6.0134

     highest occupied level (ev):    11.4199

!    total energy              =    -325.54213096 Ry
     estimated scf accuracy    <       0.00000001 Ry

     The total energy is the sum of the following terms:
     one-electron contribution =    -107.26683428 Ry
     hartree contribution      =      74.46298282 Ry
     xc contribution           =     -95.22297629 Ry
     ewald contribution        =    -197.51530321 Ry

     convergence has been achieved in   5 iterations

     Writing all to output data dir ./beta-sn-scf/betatin.save/ :
     XML data file, charge density, pseudopotentials, collected wavefunctions

     init_run     :      0.21s CPU      0.27s WALL (       1 calls)
     electrons    :      0.11s CPU      0.17s WALL (       1 calls)

     Called by init_run:
     wfcinit      :      0.00s CPU      0.02s WALL (       1 calls)
     potinit      :      0.01s CPU      0.02s WALL (       1 calls)
     hinit0       :      0.19s CPU      0.20s WALL (       1 calls)

     Called by electrons:
     c_bands      :      0.06s CPU      0.09s WALL (       6 calls)
     sum_band     :      0.02s CPU      0.03s WALL (       6 calls)
     v_of_rho     :      0.01s CPU      0.02s WALL (       6 calls)
     newd         :      0.01s CPU      0.01s WALL (       6 calls)
     mix_rho      :      0.00s CPU      0.00s WALL (       6 calls)

     Called by c_bands:
     init_us_2    :      0.00s CPU      0.00s WALL (      26 calls)
     cegterg      :      0.05s CPU      0.07s WALL (      12 calls)

     Called by *egterg:
     cdiaghg      :      0.01s CPU      0.02s WALL (      49 calls)
     h_psi        :      0.04s CPU      0.06s WALL (      53 calls)
     s_psi        :      0.00s CPU      0.00s WALL (      53 calls)
     g_psi        :      0.00s CPU      0.00s WALL (      39 calls)

     Called by h_psi:
     h_psi:calbec :      0.00s CPU      0.00s WALL (      53 calls)
     vloc_psi     :      0.03s CPU      0.05s WALL (      53 calls)
     add_vuspsi   :      0.00s CPU      0.00s WALL (      53 calls)

     General routines
     calbec       :      0.00s CPU      0.00s WALL (      65 calls)
     fft          :      0.17s CPU      0.17s WALL (      67 calls)
     ffts         :      0.00s CPU      0.00s WALL (       6 calls)
     fftw         :      0.04s CPU      0.05s WALL (    1092 calls)

     Parallel routines

     PWSCF        :      0.58s CPU      0.83s WALL


   This run was terminated on:  16: 5:20   5Feb2026            

=------------------------------------------------------------------------------=
   JOB DONE.
=------------------------------------------------------------------------------=
