
     Program PWSCF v.7.3.1 starts on  5Feb2026 at 16:24:31 

     This program is part of the open-source Quantum ESPRESSO suite
     for quantum simulation of materials; please cite
         "P. Giannozzi et al., J. Phys.:Condens. Matter 21 395502 (2009);
         "P. Giannozzi et al., J. Phys.:Condens. Matter 29 465901 (2017);
         "P. Giannozzi et al., J. Chem. Phys. 152 154105 (2020);
          URL http://www.quantum-espresso.org", 
     in publications or presentations arising from this work. More details at
     http://www.quantum-espresso.org/quote

     Parallel version (MPI), running on   128 processors

     MPI processes distributed on     1 nodes
     241354 MiB available memory on the printing compute node when the environment starts

     Waiting for input...
     Reading input from standard input

     Current dimensions of program PWSCF are:
     Max number of different atomic species (ntypx) = 10
     Max number of k-points (npk) =  40000
     Max angular momentum in pseudopotentials (lmaxx) =  4

     K-points division:     npool     =       4
     R & G space division:  proc/nbgrp/npool/nimage =      32
     Subspace diagonalization in iterative solution of the eigenvalue problem:
     a serial algorithm will be used


     Parallelization info
     --------------------
     sticks:   dense  smooth     PW     G-vecs:    dense   smooth      PW
     Min          94      94     28                 2470     2470     414
     Max          95      95     29                 2472     2472     415
     Sum        3015    3015    927                79059    79059   13265

     Using Slab Decomposition



     bravais-lattice index     =            7
     lattice parameter (alat)  =      11.0200  a.u.
     unit-cell volume          =     365.0809 (a.u.)^3
     number of atoms/cell      =            2
     number of atomic types    =            1
     number of electrons       =        28.00
     number of Kohn-Sham states=           14
     kinetic-energy cutoff     =     137.0000  Ry
     charge density cutoff     =     548.0000  Ry
     scf convergence threshold =      1.0E-07
     mixing beta               =       0.7000
     number of iterations used =            8  plain     mixing
     Exchange-correlation=  SLA  PW   GGX  GGC
                           (   1   4   2   2   0   0   0)

     celldm(1)=  11.020000  celldm(2)=   0.000000  celldm(3)=   0.545600
     celldm(4)=   0.000000  celldm(5)=   0.000000  celldm(6)=   0.000000

     crystal axes: (cart. coord. in units of alat)
               a(1) = (   0.500000  -0.500000   0.272800 )  
               a(2) = (   0.500000   0.500000   0.272800 )  
               a(3) = (  -0.500000  -0.500000   0.272800 )  

     reciprocal axes: (cart. coord. in units 2 pi/alat)
               b(1) = (  1.000000 -1.000000  0.000000 )  
               b(2) = (  0.000000  1.000000  1.832845 )  
               b(3) = ( -1.000000  0.000000  1.832845 )  


     PseudoPot. # 1 for Sn read from file:
     ./Sn.pw91-n-van.UPF
     MD5 check sum: a38d2a872edd1a4efd76c0a1a38f7031
     Pseudo is Ultrasoft + core correction, Zval = 14.0
     Generated by new atomic code, or converted to UPF format
     Using radial grid of  891 points,  6 beta functions with: 
                l(1) =   0
                l(2) =   0
                l(3) =   1
                l(4) =   1
                l(5) =   2
                l(6) =   2
     Q(r) pseudized with  8 coefficients,  rinner =    1.100   1.100   1.100
                                                       1.100   1.100

     atomic species   valence    mass     pseudopotential
     Sn               14.00   118.70000     Sn( 1.00)

     16 Sym. Ops., with inversion, found (12 have fractional translation)



   Cartesian axes

     site n.     atom                  positions (alat units)
         1        Sn     tau(   1) = (   0.0000000  -0.2500000   0.0682000  )
         2        Sn     tau(   2) = (   0.0000000   0.2500000  -0.0682000  )

     number of k points=    13
                       cart. coord. in units 2pi/alat
        k(    1) = (   0.0000000   0.0000000   0.0000000), wk =   0.0312500
        k(    2) = (  -0.2500000   0.0000000   0.4582111), wk =   0.2500000
        k(    3) = (   0.5000000   0.0000000  -0.9164223), wk =   0.1250000
        k(    4) = (  -0.2500000   0.2500000   0.9164223), wk =   0.2500000
        k(    5) = (   0.5000000   0.2500000  -0.4582111), wk =   0.5000000
        k(    6) = (   0.2500000   0.2500000   0.0000000), wk =   0.1250000
        k(    7) = (   0.5000000  -0.5000000  -1.8328446), wk =   0.0625000
        k(    8) = (   0.0000000   0.0000000   0.9164223), wk =   0.0625000
        k(    9) = (   0.7500000   0.0000000  -0.4582111), wk =   0.2500000
        k(   10) = (   0.5000000   0.0000000   0.0000000), wk =   0.1250000
        k(   11) = (   0.7500000  -0.7500000  -1.8328446), wk =   0.1250000
        k(   12) = (   0.5000000  -0.5000000  -0.9164223), wk =   0.0625000
        k(   13) = (   0.0000000   0.0000000  -1.8328446), wk =   0.0312500

     Dense  grid:    79059 G-vectors     FFT dimensions: (  64,  64,  64)

     Estimated max dynamical RAM per process >       5.76 MB

     Estimated total dynamical RAM >     679.89 MB

     Initial potential from superposition of free atoms

     starting charge      27.9964, renormalised to      28.0000
     Starting wfcs are   18 randomized atomic wfcs

     total cpu time spent up to now is        0.8 secs

     per-process dynamical memory:    12.1 Mb

     Self-consistent Calculation

     iteration #  1     ecut=   137.00 Ry     beta= 0.70
     Davidson diagonalization with overlap
     ethr =  1.00E-02,  avg # of iterations =  1.8

     Threshold (ethr) on eigenvalues was too large:
     Diagonalizing with lowered threshold

     Davidson diagonalization with overlap
     ethr =  2.38E-05,  avg # of iterations =  4.0

     total cpu time spent up to now is        1.0 secs

     total energy              =    -325.58156360 Ry
     estimated scf accuracy    <       0.00685165 Ry

     iteration #  2     ecut=   137.00 Ry     beta= 0.70
     Davidson diagonalization with overlap
     ethr =  2.45E-05,  avg # of iterations =  2.0

     total cpu time spent up to now is        1.1 secs

     total energy              =    -325.58264020 Ry
     estimated scf accuracy    <       0.00054624 Ry

     iteration #  3     ecut=   137.00 Ry     beta= 0.70
     Davidson diagonalization with overlap
     ethr =  1.95E-06,  avg # of iterations =  2.0

     total cpu time spent up to now is        1.2 secs

     total energy              =    -325.58271095 Ry
     estimated scf accuracy    <       0.00004024 Ry

     iteration #  4     ecut=   137.00 Ry     beta= 0.70
     Davidson diagonalization with overlap
     ethr =  1.44E-07,  avg # of iterations =  3.2

     total cpu time spent up to now is        1.3 secs

     total energy              =    -325.58271787 Ry
     estimated scf accuracy    <       0.00000084 Ry

     iteration #  5     ecut=   137.00 Ry     beta= 0.70
     Davidson diagonalization with overlap
     ethr =  3.00E-09,  avg # of iterations =  3.5

     total cpu time spent up to now is        1.4 secs

     total energy              =    -325.58271812 Ry
     estimated scf accuracy    <       0.00000021 Ry

     iteration #  6     ecut=   137.00 Ry     beta= 0.70
     Davidson diagonalization with overlap
     ethr =  7.66E-10,  avg # of iterations =  2.3

     total cpu time spent up to now is        1.5 secs

     End of self-consistent calculation

          k = 0.0000 0.0000 0.0000 (  9907 PWs)   bands (ev):

   -10.8090 -10.7262 -10.6825 -10.6710 -10.5209 -10.5209 -10.5099 -10.5099
   -10.4178 -10.3057  -0.3471   7.1616   8.8398   8.8398

          k =-0.2500 0.0000 0.4582 (  9889 PWs)   bands (ev):

   -10.7732 -10.6451 -10.6405 -10.5993 -10.5767 -10.5355 -10.5270 -10.5041
   -10.4389 -10.3402   0.8911   6.5842   9.0440  11.2833

          k = 0.5000 0.0000-0.9164 (  9886 PWs)   bands (ev):

   -10.7338 -10.6632 -10.6465 -10.6070 -10.5728 -10.5699 -10.4713 -10.4240
   -10.4203 -10.3738   3.8535   5.3958   8.4876   9.1144

          k =-0.2500 0.2500 0.9164 (  9896 PWs)   bands (ev):

   -10.7476 -10.6599 -10.6166 -10.5995 -10.5977 -10.5471 -10.4884 -10.4689
   -10.3926 -10.3647   3.7388   6.0512   7.1233   9.1084

          k = 0.5000 0.2500-0.4582 (  9889 PWs)   bands (ev):

   -10.7164 -10.6568 -10.6532 -10.5992 -10.5820 -10.5248 -10.4912 -10.4836
   -10.4664 -10.4019   2.0036   4.1412   9.3956  10.6281

          k = 0.2500 0.2500 0.0000 (  9893 PWs)   bands (ev):

   -10.7591 -10.7330 -10.6977 -10.6406 -10.5476 -10.5002 -10.4985 -10.4905
   -10.4472 -10.3542   0.2175   4.5879   9.5064  10.5379

          k = 0.5000-0.5000-1.8328 (  9862 PWs)   bands (ev):

   -10.7294 -10.7294 -10.6415 -10.6415 -10.5475 -10.5475 -10.4762 -10.4762
   -10.4370 -10.4370   1.9007   1.9007  11.4184  11.4184

          k = 0.0000 0.0000 0.9164 (  9887 PWs)   bands (ev):

   -10.7393 -10.6315 -10.6315 -10.6119 -10.5670 -10.5670 -10.5432 -10.4495
   -10.3950 -10.3490   3.2956   7.1434   7.9731   9.4590

          k = 0.7500 0.0000-0.4582 (  9879 PWs)   bands (ev):

   -10.7036 -10.6613 -10.5986 -10.5892 -10.5546 -10.5380 -10.5271 -10.4904
   -10.4842 -10.4280   3.0227   4.3599   7.2618   8.4574

          k = 0.5000 0.0000 0.0000 (  9903 PWs)   bands (ev):

   -10.7450 -10.7153 -10.7033 -10.6092 -10.5251 -10.5172 -10.5134 -10.4704
   -10.4682 -10.3992   0.7801   4.3545   7.0799  10.7927

          k = 0.7500-0.7500-1.8328 (  9856 PWs)   bands (ev):

   -10.7359 -10.7359 -10.6037 -10.6037 -10.5397 -10.5397 -10.4904 -10.4904
   -10.4617 -10.4617   2.4050   2.4050   7.9917   7.9917

          k = 0.5000-0.5000-0.9164 (  9888 PWs)   bands (ev):

   -10.7119 -10.7119 -10.6414 -10.6414 -10.5338 -10.5338 -10.4401 -10.4401
   -10.4132 -10.4132   4.8060   4.8060   7.2812   7.2812

          k = 0.0000 0.0000-1.8328 (  9884 PWs)   bands (ev):

   -10.7388 -10.7388 -10.5400 -10.5400 -10.5293 -10.5293 -10.5180 -10.5180
   -10.5052 -10.5052   3.2428   3.2428   6.0121   6.0121

     highest occupied level (ev):    11.4184

!    total energy              =    -325.58271814 Ry
     estimated scf accuracy    <          3.5E-09 Ry

     The total energy is the sum of the following terms:
     one-electron contribution =    -107.32036378 Ry
     hartree contribution      =      74.47496932 Ry
     xc contribution           =     -95.22202048 Ry
     ewald contribution        =    -197.51530320 Ry

     convergence has been achieved in   6 iterations

     Writing all to output data dir ./beta-sn-scf/betatin.save/ :
     XML data file, charge density, pseudopotentials, collected wavefunctions

     init_run     :      0.39s CPU      0.51s WALL (       1 calls)
     electrons    :      0.59s CPU      0.70s WALL (       1 calls)

     Called by init_run:
     wfcinit      :      0.07s CPU      0.10s WALL (       1 calls)
     potinit      :      0.01s CPU      0.03s WALL (       1 calls)
     hinit0       :      0.27s CPU      0.31s WALL (       1 calls)

     Called by electrons:
     c_bands      :      0.38s CPU      0.44s WALL (       7 calls)
     sum_band     :      0.10s CPU      0.12s WALL (       7 calls)
     v_of_rho     :      0.05s CPU      0.06s WALL (       7 calls)
     newd         :      0.02s CPU      0.03s WALL (       7 calls)
     mix_rho      :      0.01s CPU      0.01s WALL (       7 calls)

     Called by c_bands:
     init_us_2    :      0.01s CPU      0.01s WALL (      60 calls)
     cegterg      :      0.35s CPU      0.40s WALL (      28 calls)

     Called by *egterg:
     cdiaghg      :      0.03s CPU      0.04s WALL (     114 calls)
     h_psi        :      0.35s CPU      0.40s WALL (     122 calls)
     s_psi        :      0.01s CPU      0.01s WALL (     122 calls)
     g_psi        :      0.00s CPU      0.00s WALL (      90 calls)

     Called by h_psi:
     h_psi:calbec :      0.01s CPU      0.02s WALL (     122 calls)
     vloc_psi     :      0.33s CPU      0.37s WALL (     122 calls)
     add_vuspsi   :      0.01s CPU      0.01s WALL (     122 calls)

     General routines
     calbec       :      0.02s CPU      0.02s WALL (     150 calls)
     fft          :      0.27s CPU      0.29s WALL (      78 calls)
     ffts         :      0.00s CPU      0.00s WALL (       7 calls)
     fftw         :      0.35s CPU      0.39s WALL (    2510 calls)

     Parallel routines

     PWSCF        :      1.25s CPU      1.63s WALL


   This run was terminated on:  16:24:33   5Feb2026            

=------------------------------------------------------------------------------=
   JOB DONE.
=------------------------------------------------------------------------------=
