
     Program PWSCF v.7.3.1 starts on  5Feb2026 at 16: 5: 3 

     This program is part of the open-source Quantum ESPRESSO suite
     for quantum simulation of materials; please cite
         "P. Giannozzi et al., J. Phys.:Condens. Matter 21 395502 (2009);
         "P. Giannozzi et al., J. Phys.:Condens. Matter 29 465901 (2017);
         "P. Giannozzi et al., J. Chem. Phys. 152 154105 (2020);
          URL http://www.quantum-espresso.org", 
     in publications or presentations arising from this work. More details at
     http://www.quantum-espresso.org/quote

     Parallel version (MPI), running on   128 processors

     MPI processes distributed on     1 nodes
     241467 MiB available memory on the printing compute node when the environment starts

     Waiting for input...
     Reading input from standard input

     Current dimensions of program PWSCF are:
     Max number of different atomic species (ntypx) = 10
     Max number of k-points (npk) =  40000
     Max angular momentum in pseudopotentials (lmaxx) =  4

     K-points division:     npool     =       8
     R & G space division:  proc/nbgrp/npool/nimage =      16
     Subspace diagonalization in iterative solution of the eigenvalue problem:
     a serial algorithm will be used


     Parallelization info
     --------------------
     sticks:   dense  smooth     PW     G-vecs:    dense   smooth      PW
     Min          34      34     13                  383      383      91
     Max          35      35     14                  385      385      93
     Sum         555     555    211                 6145     6145    1469

     Using Slab Decomposition



     bravais-lattice index     =            7
     lattice parameter (alat)  =      11.0200  a.u.
     unit-cell volume          =     365.0809 (a.u.)^3
     number of atoms/cell      =            2
     number of atomic types    =            1
     number of electrons       =        28.00
     number of Kohn-Sham states=           14
     kinetic-energy cutoff     =      25.0000  Ry
     charge density cutoff     =     100.0000  Ry
     scf convergence threshold =      1.0E-07
     mixing beta               =       0.7000
     number of iterations used =            8  plain     mixing
     Exchange-correlation=  SLA  PW   GGX  GGC
                           (   1   4   2   2   0   0   0)

     celldm(1)=  11.020000  celldm(2)=   0.000000  celldm(3)=   0.545600
     celldm(4)=   0.000000  celldm(5)=   0.000000  celldm(6)=   0.000000

     crystal axes: (cart. coord. in units of alat)
               a(1) = (   0.500000  -0.500000   0.272800 )  
               a(2) = (   0.500000   0.500000   0.272800 )  
               a(3) = (  -0.500000  -0.500000   0.272800 )  

     reciprocal axes: (cart. coord. in units 2 pi/alat)
               b(1) = (  1.000000 -1.000000  0.000000 )  
               b(2) = (  0.000000  1.000000  1.832845 )  
               b(3) = ( -1.000000  0.000000  1.832845 )  


     PseudoPot. # 1 for Sn read from file:
     ./Sn.pw91-n-van.UPF
     MD5 check sum: a38d2a872edd1a4efd76c0a1a38f7031
     Pseudo is Ultrasoft + core correction, Zval = 14.0
     Generated by new atomic code, or converted to UPF format
     Using radial grid of  891 points,  6 beta functions with: 
                l(1) =   0
                l(2) =   0
                l(3) =   1
                l(4) =   1
                l(5) =   2
                l(6) =   2
     Q(r) pseudized with  8 coefficients,  rinner =    1.100   1.100   1.100
                                                       1.100   1.100

     atomic species   valence    mass     pseudopotential
     Sn               14.00   118.70000     Sn( 1.00)

     16 Sym. Ops., with inversion, found (12 have fractional translation)



   Cartesian axes

     site n.     atom                  positions (alat units)
         1        Sn     tau(   1) = (   0.0000000  -0.2500000   0.0682000  )
         2        Sn     tau(   2) = (   0.0000000   0.2500000  -0.0682000  )

     number of k points=    13
                       cart. coord. in units 2pi/alat
        k(    1) = (   0.0000000   0.0000000   0.0000000), wk =   0.0312500
        k(    2) = (  -0.2500000   0.0000000   0.4582111), wk =   0.2500000
        k(    3) = (   0.5000000   0.0000000  -0.9164223), wk =   0.1250000
        k(    4) = (  -0.2500000   0.2500000   0.9164223), wk =   0.2500000
        k(    5) = (   0.5000000   0.2500000  -0.4582111), wk =   0.5000000
        k(    6) = (   0.2500000   0.2500000   0.0000000), wk =   0.1250000
        k(    7) = (   0.5000000  -0.5000000  -1.8328446), wk =   0.0625000
        k(    8) = (   0.0000000   0.0000000   0.9164223), wk =   0.0625000
        k(    9) = (   0.7500000   0.0000000  -0.4582111), wk =   0.2500000
        k(   10) = (   0.5000000   0.0000000   0.0000000), wk =   0.1250000
        k(   11) = (   0.7500000  -0.7500000  -1.8328446), wk =   0.1250000
        k(   12) = (   0.5000000  -0.5000000  -0.9164223), wk =   0.0625000
        k(   13) = (   0.0000000   0.0000000  -1.8328446), wk =   0.0312500

     Dense  grid:     6145 G-vectors     FFT dimensions: (  30,  30,  30)

     Estimated max dynamical RAM per process >       1.29 MB

     Estimated total dynamical RAM >     154.30 MB

     Check: negative core charge=   -0.000002

     Initial potential from superposition of free atoms

     starting charge      27.9964, renormalised to      28.0000
     Starting wfcs are   18 randomized atomic wfcs

     total cpu time spent up to now is        0.5 secs

     per-process dynamical memory:     8.7 Mb

     Self-consistent Calculation

     iteration #  1     ecut=    25.00 Ry     beta= 0.70
     Davidson diagonalization with overlap
     ethr =  1.00E-02,  avg # of iterations =  1.8

     Threshold (ethr) on eigenvalues was too large:
     Diagonalizing with lowered threshold

     Davidson diagonalization with overlap
     ethr =  2.63E-05,  avg # of iterations =  3.6

     total cpu time spent up to now is        0.6 secs

     total energy              =    -325.52623044 Ry
     estimated scf accuracy    <       0.00748066 Ry

     iteration #  2     ecut=    25.00 Ry     beta= 0.70
     Davidson diagonalization with overlap
     ethr =  2.67E-05,  avg # of iterations =  2.0

     total cpu time spent up to now is        0.6 secs

     total energy              =    -325.52737255 Ry
     estimated scf accuracy    <       0.00058184 Ry

     iteration #  3     ecut=    25.00 Ry     beta= 0.70
     Davidson diagonalization with overlap
     ethr =  2.08E-06,  avg # of iterations =  2.0

     total cpu time spent up to now is        0.7 secs

     total energy              =    -325.52744074 Ry
     estimated scf accuracy    <       0.00004463 Ry

     iteration #  4     ecut=    25.00 Ry     beta= 0.70
     Davidson diagonalization with overlap
     ethr =  1.59E-07,  avg # of iterations =  3.1

     total cpu time spent up to now is        0.7 secs

     total energy              =    -325.52744645 Ry
     estimated scf accuracy    <       0.00000056 Ry

     iteration #  5     ecut=    25.00 Ry     beta= 0.70
     Davidson diagonalization with overlap
     ethr =  2.01E-09,  avg # of iterations =  3.5

     total cpu time spent up to now is        0.7 secs

     End of self-consistent calculation

          k = 0.0000 0.0000 0.0000 (   781 PWs)   bands (ev):

   -10.8117 -10.7348 -10.6905 -10.6748 -10.5244 -10.5244 -10.5019 -10.5019
   -10.4235 -10.2948  -0.3465   7.1568   8.8423   8.8423

          k =-0.2500 0.0000 0.4582 (   769 PWs)   bands (ev):

   -10.7742 -10.6465 -10.6396 -10.5958 -10.5728 -10.5276 -10.5220 -10.5008
   -10.4406 -10.3308   0.8915   6.5813   9.0471  11.2845

          k = 0.5000 0.0000-0.9164 (   762 PWs)   bands (ev):

   -10.7306 -10.6559 -10.6403 -10.6022 -10.5661 -10.5608 -10.4687 -10.4168
   -10.4108 -10.3680   3.8518   5.3963   8.4866   9.1171

          k =-0.2500 0.2500 0.9164 (   773 PWs)   bands (ev):

   -10.7459 -10.6593 -10.6105 -10.5980 -10.5922 -10.5427 -10.4865 -10.4677
   -10.3868 -10.3574   3.7375   6.0493   7.1262   9.1110

          k = 0.5000 0.2500-0.4582 (   767 PWs)   bands (ev):

   -10.7147 -10.6536 -10.6497 -10.5952 -10.5804 -10.5203 -10.4907 -10.4786
   -10.4578 -10.3932   2.0036   4.1404   9.3976  10.6307

          k = 0.2500 0.2500 0.0000 (   784 PWs)   bands (ev):

   -10.7599 -10.7401 -10.7014 -10.6436 -10.5466 -10.5017 -10.4969 -10.4876
   -10.4492 -10.3484   0.2180   4.5869   9.5091  10.5383

          k = 0.5000-0.5000-1.8328 (   788 PWs)   bands (ev):

   -10.7347 -10.7347 -10.6393 -10.6393 -10.5510 -10.5510 -10.4761 -10.4761
   -10.4333 -10.4333   1.9008   1.9008  11.4212  11.4212

          k = 0.0000 0.0000 0.9164 (   773 PWs)   bands (ev):

   -10.7376 -10.6286 -10.6286 -10.6161 -10.5580 -10.5580 -10.5447 -10.4482
   -10.3879 -10.3492   3.2946   7.1406   7.9750   9.4621

          k = 0.7500 0.0000-0.4582 (   768 PWs)   bands (ev):

   -10.7018 -10.6590 -10.5933 -10.5893 -10.5480 -10.5333 -10.5218 -10.4859
   -10.4802 -10.4227   3.0221   4.3581   7.2656   8.4598

          k = 0.5000 0.0000 0.0000 (   775 PWs)   bands (ev):

   -10.7490 -10.7185 -10.7058 -10.6086 -10.5216 -10.5159 -10.5034 -10.4722
   -10.4659 -10.3943   0.7804   4.3527   7.0836  10.7948

          k = 0.7500-0.7500-1.8328 (   768 PWs)   bands (ev):

   -10.7375 -10.7375 -10.5996 -10.5996 -10.5342 -10.5342 -10.4874 -10.4874
   -10.4571 -10.4571   2.4047   2.4047   7.9944   7.9944

          k = 0.5000-0.5000-0.9164 (   772 PWs)   bands (ev):

   -10.7108 -10.7108 -10.6380 -10.6380 -10.5314 -10.5314 -10.4300 -10.4300
   -10.4110 -10.4110   4.8039   4.8039   7.2849   7.2849

          k = 0.0000 0.0000-1.8328 (   740 PWs)   bands (ev):

   -10.7380 -10.7380 -10.5339 -10.5339 -10.5190 -10.5190 -10.5086 -10.5086
   -10.4897 -10.4897   3.2414   3.2414   6.0160   6.0160

     highest occupied level (ev):    11.4212

!    total energy              =    -325.52744665 Ry
     estimated scf accuracy    <       0.00000006 Ry

     The total energy is the sum of the following terms:
     one-electron contribution =    -107.22855230 Ry
     hartree contribution      =      74.42558440 Ry
     xc contribution           =     -95.20917555 Ry
     ewald contribution        =    -197.51530321 Ry

     convergence has been achieved in   5 iterations

     Writing all to output data dir ./beta-sn-scf/betatin.save/ :
     XML data file, charge density, pseudopotentials, collected wavefunctions

     init_run     :      0.22s CPU      0.27s WALL (       1 calls)
     electrons    :      0.10s CPU      0.16s WALL (       1 calls)

     Called by init_run:
     wfcinit      :      0.01s CPU      0.02s WALL (       1 calls)
     potinit      :      0.02s CPU      0.02s WALL (       1 calls)
     hinit0       :      0.18s CPU      0.19s WALL (       1 calls)

     Called by electrons:
     c_bands      :      0.06s CPU      0.09s WALL (       6 calls)
     sum_band     :      0.02s CPU      0.03s WALL (       6 calls)
     v_of_rho     :      0.01s CPU      0.02s WALL (       6 calls)
     newd         :      0.00s CPU      0.01s WALL (       6 calls)
     mix_rho      :      0.00s CPU      0.00s WALL (       6 calls)

     Called by c_bands:
     init_us_2    :      0.00s CPU      0.00s WALL (      26 calls)
     cegterg      :      0.05s CPU      0.07s WALL (      12 calls)

     Called by *egterg:
     cdiaghg      :      0.01s CPU      0.02s WALL (      48 calls)
     h_psi        :      0.04s CPU      0.06s WALL (      52 calls)
     s_psi        :      0.00s CPU      0.00s WALL (      52 calls)
     g_psi        :      0.00s CPU      0.00s WALL (      38 calls)

     Called by h_psi:
     h_psi:calbec :      0.00s CPU      0.01s WALL (      52 calls)
     vloc_psi     :      0.04s CPU      0.05s WALL (      52 calls)
     add_vuspsi   :      0.00s CPU      0.00s WALL (      52 calls)

     General routines
     calbec       :      0.00s CPU      0.01s WALL (      64 calls)
     fft          :      0.17s CPU      0.17s WALL (      67 calls)
     ffts         :      0.00s CPU      0.00s WALL (       6 calls)
     fftw         :      0.04s CPU      0.06s WALL (    1096 calls)

     Parallel routines

     PWSCF        :      0.56s CPU      0.79s WALL


   This run was terminated on:  16: 5: 3   5Feb2026            

=------------------------------------------------------------------------------=
   JOB DONE.
=------------------------------------------------------------------------------=
