
     Program PWSCF v.7.3.1 starts on  5Feb2026 at 16:21:52 

     This program is part of the open-source Quantum ESPRESSO suite
     for quantum simulation of materials; please cite
         "P. Giannozzi et al., J. Phys.:Condens. Matter 21 395502 (2009);
         "P. Giannozzi et al., J. Phys.:Condens. Matter 29 465901 (2017);
         "P. Giannozzi et al., J. Chem. Phys. 152 154105 (2020);
          URL http://www.quantum-espresso.org", 
     in publications or presentations arising from this work. More details at
     http://www.quantum-espresso.org/quote

     Parallel version (MPI), running on   128 processors

     MPI processes distributed on     1 nodes
     241408 MiB available memory on the printing compute node when the environment starts

     Waiting for input...
     Reading input from standard input

     Current dimensions of program PWSCF are:
     Max number of different atomic species (ntypx) = 10
     Max number of k-points (npk) =  40000
     Max angular momentum in pseudopotentials (lmaxx) =  4

     K-points division:     npool     =       8
     R & G space division:  proc/nbgrp/npool/nimage =      16
     Subspace diagonalization in iterative solution of the eigenvalue problem:
     a serial algorithm will be used


     Parallelization info
     --------------------
     sticks:   dense  smooth     PW     G-vecs:    dense   smooth      PW
     Min         169     169     52                 4206     4206     720
     Max         170     170     53                 4209     4209     722
     Sum        2715    2715    841                67325    67325   11535

     Using Slab Decomposition



     bravais-lattice index     =            7
     lattice parameter (alat)  =      11.0200  a.u.
     unit-cell volume          =     365.0809 (a.u.)^3
     number of atoms/cell      =            2
     number of atomic types    =            1
     number of electrons       =        28.00
     number of Kohn-Sham states=           14
     kinetic-energy cutoff     =     123.0000  Ry
     charge density cutoff     =     492.0000  Ry
     scf convergence threshold =      1.0E-07
     mixing beta               =       0.7000
     number of iterations used =            8  plain     mixing
     Exchange-correlation=  SLA  PW   GGX  GGC
                           (   1   4   2   2   0   0   0)

     celldm(1)=  11.020000  celldm(2)=   0.000000  celldm(3)=   0.545600
     celldm(4)=   0.000000  celldm(5)=   0.000000  celldm(6)=   0.000000

     crystal axes: (cart. coord. in units of alat)
               a(1) = (   0.500000  -0.500000   0.272800 )  
               a(2) = (   0.500000   0.500000   0.272800 )  
               a(3) = (  -0.500000  -0.500000   0.272800 )  

     reciprocal axes: (cart. coord. in units 2 pi/alat)
               b(1) = (  1.000000 -1.000000  0.000000 )  
               b(2) = (  0.000000  1.000000  1.832845 )  
               b(3) = ( -1.000000  0.000000  1.832845 )  


     PseudoPot. # 1 for Sn read from file:
     ./Sn.pw91-n-van.UPF
     MD5 check sum: a38d2a872edd1a4efd76c0a1a38f7031
     Pseudo is Ultrasoft + core correction, Zval = 14.0
     Generated by new atomic code, or converted to UPF format
     Using radial grid of  891 points,  6 beta functions with: 
                l(1) =   0
                l(2) =   0
                l(3) =   1
                l(4) =   1
                l(5) =   2
                l(6) =   2
     Q(r) pseudized with  8 coefficients,  rinner =    1.100   1.100   1.100
                                                       1.100   1.100

     atomic species   valence    mass     pseudopotential
     Sn               14.00   118.70000     Sn( 1.00)

     16 Sym. Ops., with inversion, found (12 have fractional translation)



   Cartesian axes

     site n.     atom                  positions (alat units)
         1        Sn     tau(   1) = (   0.0000000  -0.2500000   0.0682000  )
         2        Sn     tau(   2) = (   0.0000000   0.2500000  -0.0682000  )

     number of k points=    13
                       cart. coord. in units 2pi/alat
        k(    1) = (   0.0000000   0.0000000   0.0000000), wk =   0.0312500
        k(    2) = (  -0.2500000   0.0000000   0.4582111), wk =   0.2500000
        k(    3) = (   0.5000000   0.0000000  -0.9164223), wk =   0.1250000
        k(    4) = (  -0.2500000   0.2500000   0.9164223), wk =   0.2500000
        k(    5) = (   0.5000000   0.2500000  -0.4582111), wk =   0.5000000
        k(    6) = (   0.2500000   0.2500000   0.0000000), wk =   0.1250000
        k(    7) = (   0.5000000  -0.5000000  -1.8328446), wk =   0.0625000
        k(    8) = (   0.0000000   0.0000000   0.9164223), wk =   0.0625000
        k(    9) = (   0.7500000   0.0000000  -0.4582111), wk =   0.2500000
        k(   10) = (   0.5000000   0.0000000   0.0000000), wk =   0.1250000
        k(   11) = (   0.7500000  -0.7500000  -1.8328446), wk =   0.1250000
        k(   12) = (   0.5000000  -0.5000000  -0.9164223), wk =   0.0625000
        k(   13) = (   0.0000000   0.0000000  -1.8328446), wk =   0.0312500

     Dense  grid:    67325 G-vectors     FFT dimensions: (  60,  60,  60)

     Estimated max dynamical RAM per process >       6.71 MB

     Estimated total dynamical RAM >     743.22 MB

     Initial potential from superposition of free atoms

     starting charge      27.9964, renormalised to      28.0000
     Starting wfcs are   18 randomized atomic wfcs

     total cpu time spent up to now is        0.9 secs

     per-process dynamical memory:    12.8 Mb

     Self-consistent Calculation

     iteration #  1     ecut=   123.00 Ry     beta= 0.70
     Davidson diagonalization with overlap
     ethr =  1.00E-02,  avg # of iterations =  1.8

     Threshold (ethr) on eigenvalues was too large:
     Diagonalizing with lowered threshold

     Davidson diagonalization with overlap
     ethr =  2.37E-05,  avg # of iterations =  3.9

     total cpu time spent up to now is        1.1 secs

     total energy              =    -325.57654271 Ry
     estimated scf accuracy    <       0.00690541 Ry

     iteration #  2     ecut=   123.00 Ry     beta= 0.70
     Davidson diagonalization with overlap
     ethr =  2.47E-05,  avg # of iterations =  2.0

     total cpu time spent up to now is        1.2 secs

     total energy              =    -325.57755915 Ry
     estimated scf accuracy    <       0.00055519 Ry

     iteration #  3     ecut=   123.00 Ry     beta= 0.70
     Davidson diagonalization with overlap
     ethr =  1.98E-06,  avg # of iterations =  2.2

     total cpu time spent up to now is        1.2 secs

     total energy              =    -325.57762924 Ry
     estimated scf accuracy    <       0.00004271 Ry

     iteration #  4     ecut=   123.00 Ry     beta= 0.70
     Davidson diagonalization with overlap
     ethr =  1.53E-07,  avg # of iterations =  2.9

     total cpu time spent up to now is        1.3 secs

     total energy              =    -325.57763537 Ry
     estimated scf accuracy    <       0.00000050 Ry

     iteration #  5     ecut=   123.00 Ry     beta= 0.70
     Davidson diagonalization with overlap
     ethr =  1.79E-09,  avg # of iterations =  3.8

     total cpu time spent up to now is        1.4 secs

     End of self-consistent calculation

          k = 0.0000 0.0000 0.0000 (  8411 PWs)   bands (ev):

   -10.8072 -10.7243 -10.6808 -10.6694 -10.5191 -10.5191 -10.5078 -10.5078
   -10.4160 -10.3041  -0.3473   7.1614   8.8397   8.8397

          k =-0.2500 0.0000 0.4582 (  8420 PWs)   bands (ev):

   -10.7712 -10.6435 -10.6386 -10.5974 -10.5750 -10.5335 -10.5252 -10.5023
   -10.4371 -10.3387   0.8910   6.5840   9.0439  11.2832

          k = 0.5000 0.0000-0.9164 (  8406 PWs)   bands (ev):

   -10.7319 -10.6614 -10.6449 -10.6050 -10.5712 -10.5679 -10.4695 -10.4221
   -10.4183 -10.3721   3.8532   5.3957   8.4875   9.1145

          k =-0.2500 0.2500 0.9164 (  8399 PWs)   bands (ev):

   -10.7458 -10.6580 -10.6146 -10.5978 -10.5957 -10.5453 -10.4863 -10.4671
   -10.3905 -10.3629   3.7386   6.0510   7.1234   9.1085

          k = 0.5000 0.2500-0.4582 (  8403 PWs)   bands (ev):

   -10.7144 -10.6550 -10.6513 -10.5973 -10.5803 -10.5230 -10.4894 -10.4817
   -10.4645 -10.4002   2.0034   4.1410   9.3955  10.6281

          k = 0.2500 0.2500 0.0000 (  8410 PWs)   bands (ev):

   -10.7571 -10.7311 -10.6960 -10.6389 -10.5457 -10.4983 -10.4967 -10.4886
   -10.4454 -10.3526   0.2174   4.5877   9.5063  10.5378

          k = 0.5000-0.5000-1.8328 (  8428 PWs)   bands (ev):

   -10.7275 -10.7275 -10.6397 -10.6397 -10.5459 -10.5459 -10.4744 -10.4744
   -10.4354 -10.4354   1.9006   1.9006  11.4184  11.4184

          k = 0.0000 0.0000 0.9164 (  8419 PWs)   bands (ev):

   -10.7375 -10.6298 -10.6298 -10.6103 -10.5649 -10.5649 -10.5411 -10.4479
   -10.3930 -10.3475   3.2954   7.1432   7.9732   9.4589

          k = 0.7500 0.0000-0.4582 (  8408 PWs)   bands (ev):

   -10.7017 -10.6593 -10.5967 -10.5874 -10.5529 -10.5361 -10.5252 -10.4886
   -10.4825 -10.4264   3.0225   4.3598   7.2617   8.4573

          k = 0.5000 0.0000 0.0000 (  8417 PWs)   bands (ev):

   -10.7431 -10.7135 -10.7015 -10.6073 -10.5232 -10.5153 -10.5115 -10.4688
   -10.4664 -10.3975   0.7799   4.3543   7.0799  10.7926

          k = 0.7500-0.7500-1.8328 (  8424 PWs)   bands (ev):

   -10.7340 -10.7340 -10.6020 -10.6020 -10.5381 -10.5381 -10.4886 -10.4886
   -10.4601 -10.4601   2.4049   2.4049   7.9917   7.9917

          k = 0.5000-0.5000-0.9164 (  8388 PWs)   bands (ev):

   -10.7099 -10.7099 -10.6395 -10.6395 -10.5319 -10.5319 -10.4384 -10.4384
   -10.4111 -10.4111   4.8057   4.8057   7.2813   7.2813

          k = 0.0000 0.0000-1.8328 (  8434 PWs)   bands (ev):

   -10.7370 -10.7370 -10.5384 -10.5384 -10.5278 -10.5278 -10.5161 -10.5161
   -10.5034 -10.5034   3.2427   3.2427   6.0120   6.0120

     highest occupied level (ev):    11.4184

!    total energy              =    -325.57763575 Ry
     estimated scf accuracy    <       0.00000003 Ry

     The total energy is the sum of the following terms:
     one-electron contribution =    -107.31397715 Ry
     hartree contribution      =      74.47322311 Ry
     xc contribution           =     -95.22157851 Ry
     ewald contribution        =    -197.51530320 Ry

     convergence has been achieved in   5 iterations

     Writing all to output data dir ./beta-sn-scf/betatin.save/ :
     XML data file, charge density, pseudopotentials, collected wavefunctions

     init_run     :      0.56s CPU      0.61s WALL (       1 calls)
     electrons    :      0.46s CPU      0.54s WALL (       1 calls)

     Called by init_run:
     wfcinit      :      0.03s CPU      0.03s WALL (       1 calls)
     potinit      :      0.02s CPU      0.03s WALL (       1 calls)
     hinit0       :      0.45s CPU      0.47s WALL (       1 calls)

     Called by electrons:
     c_bands      :      0.27s CPU      0.29s WALL (       6 calls)
     sum_band     :      0.09s CPU      0.10s WALL (       6 calls)
     v_of_rho     :      0.07s CPU      0.09s WALL (       6 calls)
     newd         :      0.02s CPU      0.03s WALL (       6 calls)
     mix_rho      :      0.01s CPU      0.01s WALL (       6 calls)

     Called by c_bands:
     init_us_2    :      0.01s CPU      0.01s WALL (      26 calls)
     cegterg      :      0.24s CPU      0.25s WALL (      12 calls)

     Called by *egterg:
     cdiaghg      :      0.02s CPU      0.02s WALL (      50 calls)
     h_psi        :      0.22s CPU      0.23s WALL (      54 calls)
     s_psi        :      0.00s CPU      0.00s WALL (      54 calls)
     g_psi        :      0.00s CPU      0.00s WALL (      40 calls)

     Called by h_psi:
     h_psi:calbec :      0.01s CPU      0.01s WALL (      54 calls)
     vloc_psi     :      0.20s CPU      0.21s WALL (      54 calls)
     add_vuspsi   :      0.01s CPU      0.01s WALL (      54 calls)

     General routines
     calbec       :      0.01s CPU      0.01s WALL (      66 calls)
     fft          :      0.45s CPU      0.46s WALL (      67 calls)
     ffts         :      0.00s CPU      0.00s WALL (       6 calls)
     fftw         :      0.21s CPU      0.22s WALL (    1084 calls)

     Parallel routines

     PWSCF        :      1.24s CPU      1.54s WALL


   This run was terminated on:  16:21:53   5Feb2026            

=------------------------------------------------------------------------------=
   JOB DONE.
=------------------------------------------------------------------------------=
