
     Program PWSCF v.7.3.1 starts on  5Feb2026 at 16:30: 6 

     This program is part of the open-source Quantum ESPRESSO suite
     for quantum simulation of materials; please cite
         "P. Giannozzi et al., J. Phys.:Condens. Matter 21 395502 (2009);
         "P. Giannozzi et al., J. Phys.:Condens. Matter 29 465901 (2017);
         "P. Giannozzi et al., J. Chem. Phys. 152 154105 (2020);
          URL http://www.quantum-espresso.org", 
     in publications or presentations arising from this work. More details at
     http://www.quantum-espresso.org/quote

     Parallel version (MPI), running on   128 processors

     MPI processes distributed on     1 nodes
     241293 MiB available memory on the printing compute node when the environment starts

     Waiting for input...
     Reading input from standard input

     Current dimensions of program PWSCF are:
     Max number of different atomic species (ntypx) = 10
     Max number of k-points (npk) =  40000
     Max angular momentum in pseudopotentials (lmaxx) =  4

     K-points division:     npool     =       4
     R & G space division:  proc/nbgrp/npool/nimage =      32
     Subspace diagonalization in iterative solution of the eigenvalue problem:
     a serial algorithm will be used


     Parallelization info
     --------------------
     sticks:   dense  smooth     PW     G-vecs:    dense   smooth      PW
     Min         115     115     34                 3327     3327     544
     Max         116     116     35                 3329     3329     546
     Sum        3687    3687   1093               106497   106497   17425

     Using Slab Decomposition



     bravais-lattice index     =            7
     lattice parameter (alat)  =      11.0200  a.u.
     unit-cell volume          =     365.0809 (a.u.)^3
     number of atoms/cell      =            2
     number of atomic types    =            1
     number of electrons       =        28.00
     number of Kohn-Sham states=           14
     kinetic-energy cutoff     =     167.0000  Ry
     charge density cutoff     =     668.0000  Ry
     scf convergence threshold =      1.0E-07
     mixing beta               =       0.7000
     number of iterations used =            8  plain     mixing
     Exchange-correlation=  SLA  PW   GGX  GGC
                           (   1   4   2   2   0   0   0)

     celldm(1)=  11.020000  celldm(2)=   0.000000  celldm(3)=   0.545600
     celldm(4)=   0.000000  celldm(5)=   0.000000  celldm(6)=   0.000000

     crystal axes: (cart. coord. in units of alat)
               a(1) = (   0.500000  -0.500000   0.272800 )  
               a(2) = (   0.500000   0.500000   0.272800 )  
               a(3) = (  -0.500000  -0.500000   0.272800 )  

     reciprocal axes: (cart. coord. in units 2 pi/alat)
               b(1) = (  1.000000 -1.000000  0.000000 )  
               b(2) = (  0.000000  1.000000  1.832845 )  
               b(3) = ( -1.000000  0.000000  1.832845 )  


     PseudoPot. # 1 for Sn read from file:
     ./Sn.pw91-n-van.UPF
     MD5 check sum: a38d2a872edd1a4efd76c0a1a38f7031
     Pseudo is Ultrasoft + core correction, Zval = 14.0
     Generated by new atomic code, or converted to UPF format
     Using radial grid of  891 points,  6 beta functions with: 
                l(1) =   0
                l(2) =   0
                l(3) =   1
                l(4) =   1
                l(5) =   2
                l(6) =   2
     Q(r) pseudized with  8 coefficients,  rinner =    1.100   1.100   1.100
                                                       1.100   1.100

     atomic species   valence    mass     pseudopotential
     Sn               14.00   118.70000     Sn( 1.00)

     16 Sym. Ops., with inversion, found (12 have fractional translation)



   Cartesian axes

     site n.     atom                  positions (alat units)
         1        Sn     tau(   1) = (   0.0000000  -0.2500000   0.0682000  )
         2        Sn     tau(   2) = (   0.0000000   0.2500000  -0.0682000  )

     number of k points=    13
                       cart. coord. in units 2pi/alat
        k(    1) = (   0.0000000   0.0000000   0.0000000), wk =   0.0312500
        k(    2) = (  -0.2500000   0.0000000   0.4582111), wk =   0.2500000
        k(    3) = (   0.5000000   0.0000000  -0.9164223), wk =   0.1250000
        k(    4) = (  -0.2500000   0.2500000   0.9164223), wk =   0.2500000
        k(    5) = (   0.5000000   0.2500000  -0.4582111), wk =   0.5000000
        k(    6) = (   0.2500000   0.2500000   0.0000000), wk =   0.1250000
        k(    7) = (   0.5000000  -0.5000000  -1.8328446), wk =   0.0625000
        k(    8) = (   0.0000000   0.0000000   0.9164223), wk =   0.0625000
        k(    9) = (   0.7500000   0.0000000  -0.4582111), wk =   0.2500000
        k(   10) = (   0.5000000   0.0000000   0.0000000), wk =   0.1250000
        k(   11) = (   0.7500000  -0.7500000  -1.8328446), wk =   0.1250000
        k(   12) = (   0.5000000  -0.5000000  -0.9164223), wk =   0.0625000
        k(   13) = (   0.0000000   0.0000000  -1.8328446), wk =   0.0312500

     Dense  grid:   106497 G-vectors     FFT dimensions: (  72,  72,  72)

     Estimated max dynamical RAM per process >       7.62 MB

     Estimated total dynamical RAM >     897.48 MB

     Initial potential from superposition of free atoms

     starting charge      27.9964, renormalised to      28.0000
     Starting wfcs are   18 randomized atomic wfcs

     total cpu time spent up to now is        1.1 secs

     per-process dynamical memory:    13.1 Mb

     Self-consistent Calculation

     iteration #  1     ecut=   167.00 Ry     beta= 0.70
     Davidson diagonalization with overlap
     ethr =  1.00E-02,  avg # of iterations =  1.9

     Threshold (ethr) on eigenvalues was too large:
     Diagonalizing with lowered threshold

     Davidson diagonalization with overlap
     ethr =  2.31E-05,  avg # of iterations =  3.6

     total cpu time spent up to now is        1.4 secs

     total energy              =    -325.58315458 Ry
     estimated scf accuracy    <       0.00678922 Ry

     iteration #  2     ecut=   167.00 Ry     beta= 0.70
     Davidson diagonalization with overlap
     ethr =  2.42E-05,  avg # of iterations =  2.0

     total cpu time spent up to now is        1.5 secs

     total energy              =    -325.58466879 Ry
     estimated scf accuracy    <       0.00050134 Ry

     iteration #  3     ecut=   167.00 Ry     beta= 0.70
     Davidson diagonalization with overlap
     ethr =  1.79E-06,  avg # of iterations =  2.3

     total cpu time spent up to now is        1.7 secs

     total energy              =    -325.58477877 Ry
     estimated scf accuracy    <       0.00003743 Ry

     iteration #  4     ecut=   167.00 Ry     beta= 0.70
     Davidson diagonalization with overlap
     ethr =  1.34E-07,  avg # of iterations =  2.4

     total cpu time spent up to now is        1.8 secs

     total energy              =    -325.58478263 Ry
     estimated scf accuracy    <       0.00000024 Ry

     iteration #  5     ecut=   167.00 Ry     beta= 0.70
     Davidson diagonalization with overlap
     ethr =  8.66E-10,  avg # of iterations =  4.7

     total cpu time spent up to now is        2.0 secs

     End of self-consistent calculation

          k = 0.0000 0.0000 0.0000 ( 13353 PWs)   bands (ev):

   -10.8097 -10.7272 -10.6833 -10.6720 -10.5219 -10.5219 -10.5108 -10.5108
   -10.4187 -10.3067  -0.3471   7.1616   8.8398   8.8398

          k =-0.2500 0.0000 0.4582 ( 13293 PWs)   bands (ev):

   -10.7738 -10.6459 -10.6414 -10.6001 -10.5777 -10.5363 -10.5280 -10.5051
   -10.4397 -10.3412   0.8912   6.5842   9.0441  11.2833

          k = 0.5000 0.0000-0.9164 ( 13304 PWs)   bands (ev):

   -10.7345 -10.6641 -10.6474 -10.6079 -10.5738 -10.5709 -10.4721 -10.4250
   -10.4212 -10.3747   3.8535   5.3958   8.4876   9.1143

          k =-0.2500 0.2500 0.9164 ( 13292 PWs)   bands (ev):

   -10.7484 -10.6607 -10.6174 -10.6003 -10.5986 -10.5480 -10.4892 -10.4698
   -10.3934 -10.3656   3.7389   6.0512   7.1233   9.1084

          k = 0.5000 0.2500-0.4582 ( 13312 PWs)   bands (ev):

   -10.7171 -10.6577 -10.6540 -10.6001 -10.5829 -10.5258 -10.4921 -10.4845
   -10.4673 -10.4029   2.0036   4.1412   9.3956  10.6281

          k = 0.2500 0.2500 0.0000 ( 13300 PWs)   bands (ev):

   -10.7597 -10.7340 -10.6988 -10.6414 -10.5485 -10.5011 -10.4995 -10.4914
   -10.4481 -10.3552   0.2176   4.5879   9.5064  10.5379

          k = 0.5000-0.5000-1.8328 ( 13308 PWs)   bands (ev):

   -10.7304 -10.7304 -10.6424 -10.6424 -10.5484 -10.5484 -10.4772 -10.4772
   -10.4380 -10.4380   1.9007   1.9007  11.4184  11.4184

          k = 0.0000 0.0000 0.9164 ( 13308 PWs)   bands (ev):

   -10.7400 -10.6324 -10.6324 -10.6127 -10.5679 -10.5679 -10.5440 -10.4505
   -10.3958 -10.3501   3.2956   7.1434   7.9731   9.4590

          k = 0.7500 0.0000-0.4582 ( 13328 PWs)   bands (ev):

   -10.7043 -10.6621 -10.5995 -10.5901 -10.5556 -10.5389 -10.5281 -10.4914
   -10.4852 -10.4289   3.0227   4.3600   7.2618   8.4574

          k = 0.5000 0.0000 0.0000 ( 13319 PWs)   bands (ev):

   -10.7458 -10.7163 -10.7041 -10.6100 -10.5259 -10.5181 -10.5142 -10.4714
   -10.4691 -10.4001   0.7801   4.3545   7.0799  10.7927

          k = 0.7500-0.7500-1.8328 ( 13324 PWs)   bands (ev):

   -10.7369 -10.7369 -10.6046 -10.6046 -10.5406 -10.5406 -10.4914 -10.4914
   -10.4627 -10.4627   2.4051   2.4051   7.9917   7.9917

          k = 0.5000-0.5000-0.9164 ( 13276 PWs)   bands (ev):

   -10.7126 -10.7126 -10.6422 -10.6422 -10.5346 -10.5346 -10.4411 -10.4411
   -10.4140 -10.4140   4.8061   4.8061   7.2811   7.2811

          k = 0.0000 0.0000-1.8328 ( 13312 PWs)   bands (ev):

   -10.7397 -10.7397 -10.5409 -10.5409 -10.5303 -10.5303 -10.5188 -10.5188
   -10.5061 -10.5061   3.2428   3.2428   6.0121   6.0121

     highest occupied level (ev):    11.4184

!    total energy              =    -325.58478293 Ry
     estimated scf accuracy    <          4.1E-09 Ry

     The total energy is the sum of the following terms:
     one-electron contribution =    -107.32311780 Ry
     hartree contribution      =      74.47589441 Ry
     xc contribution           =     -95.22225635 Ry
     ewald contribution        =    -197.51530320 Ry

     convergence has been achieved in   5 iterations

     Writing all to output data dir ./beta-sn-scf/betatin.save/ :
     XML data file, charge density, pseudopotentials, collected wavefunctions

     init_run     :      0.71s CPU      0.80s WALL (       1 calls)
     electrons    :      0.83s CPU      0.93s WALL (       1 calls)

     Called by init_run:
     wfcinit      :      0.06s CPU      0.07s WALL (       1 calls)
     potinit      :      0.00s CPU      0.04s WALL (       1 calls)
     hinit0       :      0.58s CPU      0.61s WALL (       1 calls)

     Called by electrons:
     c_bands      :      0.57s CPU      0.60s WALL (       6 calls)
     sum_band     :      0.14s CPU      0.16s WALL (       6 calls)
     v_of_rho     :      0.07s CPU      0.09s WALL (       6 calls)
     newd         :      0.03s CPU      0.04s WALL (       6 calls)
     mix_rho      :      0.01s CPU      0.01s WALL (       6 calls)

     Called by c_bands:
     init_us_2    :      0.01s CPU      0.01s WALL (      52 calls)
     cegterg      :      0.54s CPU      0.56s WALL (      24 calls)

     Called by *egterg:
     cdiaghg      :      0.03s CPU      0.03s WALL (      96 calls)
     h_psi        :      0.51s CPU      0.53s WALL (     104 calls)
     s_psi        :      0.01s CPU      0.01s WALL (     104 calls)
     g_psi        :      0.00s CPU      0.00s WALL (      76 calls)

     Called by h_psi:
     h_psi:calbec :      0.02s CPU      0.02s WALL (     104 calls)
     vloc_psi     :      0.48s CPU      0.50s WALL (     104 calls)
     add_vuspsi   :      0.01s CPU      0.01s WALL (     104 calls)

     General routines
     calbec       :      0.02s CPU      0.02s WALL (     128 calls)
     fft          :      0.59s CPU      0.60s WALL (      67 calls)
     ffts         :      0.00s CPU      0.00s WALL (       6 calls)
     fftw         :      0.51s CPU      0.53s WALL (    2188 calls)

     Parallel routines

     PWSCF        :      1.77s CPU      2.14s WALL


   This run was terminated on:  16:30: 9   5Feb2026            

=------------------------------------------------------------------------------=
   JOB DONE.
=------------------------------------------------------------------------------=
