
     Program PWSCF v.7.3.1 starts on  5Feb2026 at 16:29:19 

     This program is part of the open-source Quantum ESPRESSO suite
     for quantum simulation of materials; please cite
         "P. Giannozzi et al., J. Phys.:Condens. Matter 21 395502 (2009);
         "P. Giannozzi et al., J. Phys.:Condens. Matter 29 465901 (2017);
         "P. Giannozzi et al., J. Chem. Phys. 152 154105 (2020);
          URL http://www.quantum-espresso.org", 
     in publications or presentations arising from this work. More details at
     http://www.quantum-espresso.org/quote

     Parallel version (MPI), running on   128 processors

     MPI processes distributed on     1 nodes
     241343 MiB available memory on the printing compute node when the environment starts

     Waiting for input...
     Reading input from standard input

     Current dimensions of program PWSCF are:
     Max number of different atomic species (ntypx) = 10
     Max number of k-points (npk) =  40000
     Max angular momentum in pseudopotentials (lmaxx) =  4

     K-points division:     npool     =       4
     R & G space division:  proc/nbgrp/npool/nimage =      32
     Subspace diagonalization in iterative solution of the eigenvalue problem:
     a serial algorithm will be used


     Parallelization info
     --------------------
     sticks:   dense  smooth     PW     G-vecs:    dense   smooth      PW
     Min         111     111     33                 3202     3202     526
     Max         112     112     34                 3206     3206     529
     Sum        3571    3571   1075               102517   102517   16881

     Using Slab Decomposition



     bravais-lattice index     =            7
     lattice parameter (alat)  =      11.0200  a.u.
     unit-cell volume          =     365.0809 (a.u.)^3
     number of atoms/cell      =            2
     number of atomic types    =            1
     number of electrons       =        28.00
     number of Kohn-Sham states=           14
     kinetic-energy cutoff     =     163.0000  Ry
     charge density cutoff     =     652.0000  Ry
     scf convergence threshold =      1.0E-07
     mixing beta               =       0.7000
     number of iterations used =            8  plain     mixing
     Exchange-correlation=  SLA  PW   GGX  GGC
                           (   1   4   2   2   0   0   0)

     celldm(1)=  11.020000  celldm(2)=   0.000000  celldm(3)=   0.545600
     celldm(4)=   0.000000  celldm(5)=   0.000000  celldm(6)=   0.000000

     crystal axes: (cart. coord. in units of alat)
               a(1) = (   0.500000  -0.500000   0.272800 )  
               a(2) = (   0.500000   0.500000   0.272800 )  
               a(3) = (  -0.500000  -0.500000   0.272800 )  

     reciprocal axes: (cart. coord. in units 2 pi/alat)
               b(1) = (  1.000000 -1.000000  0.000000 )  
               b(2) = (  0.000000  1.000000  1.832845 )  
               b(3) = ( -1.000000  0.000000  1.832845 )  


     PseudoPot. # 1 for Sn read from file:
     ./Sn.pw91-n-van.UPF
     MD5 check sum: a38d2a872edd1a4efd76c0a1a38f7031
     Pseudo is Ultrasoft + core correction, Zval = 14.0
     Generated by new atomic code, or converted to UPF format
     Using radial grid of  891 points,  6 beta functions with: 
                l(1) =   0
                l(2) =   0
                l(3) =   1
                l(4) =   1
                l(5) =   2
                l(6) =   2
     Q(r) pseudized with  8 coefficients,  rinner =    1.100   1.100   1.100
                                                       1.100   1.100

     atomic species   valence    mass     pseudopotential
     Sn               14.00   118.70000     Sn( 1.00)

     16 Sym. Ops., with inversion, found (12 have fractional translation)



   Cartesian axes

     site n.     atom                  positions (alat units)
         1        Sn     tau(   1) = (   0.0000000  -0.2500000   0.0682000  )
         2        Sn     tau(   2) = (   0.0000000   0.2500000  -0.0682000  )

     number of k points=    13
                       cart. coord. in units 2pi/alat
        k(    1) = (   0.0000000   0.0000000   0.0000000), wk =   0.0312500
        k(    2) = (  -0.2500000   0.0000000   0.4582111), wk =   0.2500000
        k(    3) = (   0.5000000   0.0000000  -0.9164223), wk =   0.1250000
        k(    4) = (  -0.2500000   0.2500000   0.9164223), wk =   0.2500000
        k(    5) = (   0.5000000   0.2500000  -0.4582111), wk =   0.5000000
        k(    6) = (   0.2500000   0.2500000   0.0000000), wk =   0.1250000
        k(    7) = (   0.5000000  -0.5000000  -1.8328446), wk =   0.0625000
        k(    8) = (   0.0000000   0.0000000   0.9164223), wk =   0.0625000
        k(    9) = (   0.7500000   0.0000000  -0.4582111), wk =   0.2500000
        k(   10) = (   0.5000000   0.0000000   0.0000000), wk =   0.1250000
        k(   11) = (   0.7500000  -0.7500000  -1.8328446), wk =   0.1250000
        k(   12) = (   0.5000000  -0.5000000  -0.9164223), wk =   0.0625000
        k(   13) = (   0.0000000   0.0000000  -1.8328446), wk =   0.0312500

     Dense  grid:   102517 G-vectors     FFT dimensions: (  72,  72,  72)

     Estimated max dynamical RAM per process >       7.43 MB

     Estimated total dynamical RAM >     876.00 MB

     Initial potential from superposition of free atoms

     starting charge      27.9964, renormalised to      28.0000
     Starting wfcs are   18 randomized atomic wfcs

     total cpu time spent up to now is        1.1 secs

     per-process dynamical memory:    13.1 Mb

     Self-consistent Calculation

     iteration #  1     ecut=   163.00 Ry     beta= 0.70
     Davidson diagonalization with overlap
     ethr =  1.00E-02,  avg # of iterations =  1.8

     Threshold (ethr) on eigenvalues was too large:
     Diagonalizing with lowered threshold

     Davidson diagonalization with overlap
     ethr =  2.33E-05,  avg # of iterations =  3.8

     total cpu time spent up to now is        1.4 secs

     total energy              =    -325.58273692 Ry
     estimated scf accuracy    <       0.00681229 Ry

     iteration #  2     ecut=   163.00 Ry     beta= 0.70
     Davidson diagonalization with overlap
     ethr =  2.43E-05,  avg # of iterations =  2.0

     total cpu time spent up to now is        1.6 secs

     total energy              =    -325.58412899 Ry
     estimated scf accuracy    <       0.00051338 Ry

     iteration #  3     ecut=   163.00 Ry     beta= 0.70
     Davidson diagonalization with overlap
     ethr =  1.83E-06,  avg # of iterations =  2.5

     total cpu time spent up to now is        1.7 secs

     total energy              =    -325.58423167 Ry
     estimated scf accuracy    <       0.00003758 Ry

     iteration #  4     ecut=   163.00 Ry     beta= 0.70
     Davidson diagonalization with overlap
     ethr =  1.34E-07,  avg # of iterations =  2.5

     total cpu time spent up to now is        1.8 secs

     total energy              =    -325.58423651 Ry
     estimated scf accuracy    <       0.00000049 Ry

     iteration #  5     ecut=   163.00 Ry     beta= 0.70
     Davidson diagonalization with overlap
     ethr =  1.75E-09,  avg # of iterations =  3.6

     total cpu time spent up to now is        2.0 secs

     End of self-consistent calculation

          k = 0.0000 0.0000 0.0000 ( 12773 PWs)   bands (ev):

   -10.8100 -10.7269 -10.6834 -10.6717 -10.5217 -10.5217 -10.5106 -10.5106
   -10.4189 -10.3067  -0.3472   7.1617   8.8397   8.8397

          k =-0.2500 0.0000 0.4582 ( 12819 PWs)   bands (ev):

   -10.7740 -10.6461 -10.6412 -10.6000 -10.5777 -10.5363 -10.5279 -10.5049
   -10.4399 -10.3413   0.8911   6.5842   9.0439  11.2833

          k = 0.5000 0.0000-0.9164 ( 12824 PWs)   bands (ev):

   -10.7346 -10.6640 -10.6473 -10.6078 -10.5740 -10.5708 -10.4723 -10.4249
   -10.4211 -10.3747   3.8534   5.3958   8.4877   9.1145

          k =-0.2500 0.2500 0.9164 ( 12837 PWs)   bands (ev):

   -10.7485 -10.6607 -10.6174 -10.6005 -10.5985 -10.5480 -10.4892 -10.4699
   -10.3933 -10.3656   3.7387   6.0511   7.1234   9.1085

          k = 0.5000 0.2500-0.4582 ( 12818 PWs)   bands (ev):

   -10.7172 -10.6576 -10.6539 -10.6001 -10.5830 -10.5257 -10.4922 -10.4844
   -10.4672 -10.4029   2.0035   4.1412   9.3954  10.6281

          k = 0.2500 0.2500 0.0000 ( 12816 PWs)   bands (ev):

   -10.7600 -10.7338 -10.6985 -10.6416 -10.5485 -10.5010 -10.4993 -10.4913
   -10.4482 -10.3553   0.2175   4.5879   9.5063  10.5378

          k = 0.5000-0.5000-1.8328 ( 12796 PWs)   bands (ev):

   -10.7302 -10.7302 -10.6424 -10.6424 -10.5485 -10.5485 -10.4770 -10.4770
   -10.4380 -10.4380   1.9007   1.9007  11.4183  11.4183

          k = 0.0000 0.0000 0.9164 ( 12804 PWs)   bands (ev):

   -10.7402 -10.6323 -10.6323 -10.6130 -10.5678 -10.5678 -10.5439 -10.4507
   -10.3957 -10.3501   3.2955   7.1434   7.9733   9.4588

          k = 0.7500 0.0000-0.4582 ( 12839 PWs)   bands (ev):

   -10.7044 -10.6620 -10.5994 -10.5901 -10.5557 -10.5389 -10.5279 -10.4915
   -10.4851 -10.4290   3.0227   4.3599   7.2616   8.4573

          k = 0.5000 0.0000 0.0000 ( 12858 PWs)   bands (ev):

   -10.7458 -10.7161 -10.7041 -10.6102 -10.5259 -10.5180 -10.5142 -10.4713
   -10.4693 -10.4002   0.7800   4.3545   7.0798  10.7926

          k = 0.7500-0.7500-1.8328 ( 12842 PWs)   bands (ev):

   -10.7367 -10.7367 -10.6046 -10.6046 -10.5408 -10.5408 -10.4913 -10.4913
   -10.4626 -10.4626   2.4050   2.4050   7.9916   7.9916

          k = 0.5000-0.5000-0.9164 ( 12816 PWs)   bands (ev):

   -10.7127 -10.7127 -10.6421 -10.6421 -10.5348 -10.5348 -10.4411 -10.4411
   -10.4139 -10.4139   4.8059   4.8059   7.2813   7.2813

          k = 0.0000 0.0000-1.8328 ( 12856 PWs)   bands (ev):

   -10.7395 -10.7395 -10.5410 -10.5410 -10.5306 -10.5306 -10.5188 -10.5188
   -10.5060 -10.5060   3.2428   3.2428   6.0119   6.0119

     highest occupied level (ev):    11.4183

!    total energy              =    -325.58423683 Ry
     estimated scf accuracy    <       0.00000004 Ry

     The total energy is the sum of the following terms:
     one-electron contribution =    -107.32262558 Ry
     hartree contribution      =      74.47597084 Ry
     xc contribution           =     -95.22227889 Ry
     ewald contribution        =    -197.51530320 Ry

     convergence has been achieved in   5 iterations

     Writing all to output data dir ./beta-sn-scf/betatin.save/ :
     XML data file, charge density, pseudopotentials, collected wavefunctions

     init_run     :      0.72s CPU      0.79s WALL (       1 calls)
     electrons    :      0.83s CPU      0.91s WALL (       1 calls)

     Called by init_run:
     wfcinit      :      0.05s CPU      0.07s WALL (       1 calls)
     potinit      :      0.01s CPU      0.04s WALL (       1 calls)
     hinit0       :      0.58s CPU      0.60s WALL (       1 calls)

     Called by electrons:
     c_bands      :      0.57s CPU      0.59s WALL (       6 calls)
     sum_band     :      0.15s CPU      0.16s WALL (       6 calls)
     v_of_rho     :      0.07s CPU      0.09s WALL (       6 calls)
     newd         :      0.03s CPU      0.03s WALL (       6 calls)
     mix_rho      :      0.01s CPU      0.01s WALL (       6 calls)

     Called by c_bands:
     init_us_2    :      0.01s CPU      0.01s WALL (      52 calls)
     cegterg      :      0.52s CPU      0.54s WALL (      24 calls)

     Called by *egterg:
     cdiaghg      :      0.03s CPU      0.03s WALL (      95 calls)
     h_psi        :      0.50s CPU      0.51s WALL (     103 calls)
     s_psi        :      0.01s CPU      0.01s WALL (     103 calls)
     g_psi        :      0.00s CPU      0.00s WALL (      75 calls)

     Called by h_psi:
     h_psi:calbec :      0.02s CPU      0.02s WALL (     103 calls)
     vloc_psi     :      0.47s CPU      0.48s WALL (     103 calls)
     add_vuspsi   :      0.01s CPU      0.01s WALL (     103 calls)

     General routines
     calbec       :      0.02s CPU      0.02s WALL (     127 calls)
     fft          :      0.59s CPU      0.59s WALL (      67 calls)
     ffts         :      0.00s CPU      0.00s WALL (       6 calls)
     fftw         :      0.50s CPU      0.52s WALL (    2154 calls)

     Parallel routines

     PWSCF        :      1.92s CPU      2.25s WALL


   This run was terminated on:  16:29:21   5Feb2026            

=------------------------------------------------------------------------------=
   JOB DONE.
=------------------------------------------------------------------------------=
