
     Program PWSCF v.7.3.1 starts on  5Feb2026 at 16:15:16 

     This program is part of the open-source Quantum ESPRESSO suite
     for quantum simulation of materials; please cite
         "P. Giannozzi et al., J. Phys.:Condens. Matter 21 395502 (2009);
         "P. Giannozzi et al., J. Phys.:Condens. Matter 29 465901 (2017);
         "P. Giannozzi et al., J. Chem. Phys. 152 154105 (2020);
          URL http://www.quantum-espresso.org", 
     in publications or presentations arising from this work. More details at
     http://www.quantum-espresso.org/quote

     Parallel version (MPI), running on   128 processors

     MPI processes distributed on     1 nodes
     241321 MiB available memory on the printing compute node when the environment starts

     Waiting for input...
     Reading input from standard input

     Current dimensions of program PWSCF are:
     Max number of different atomic species (ntypx) = 10
     Max number of k-points (npk) =  40000
     Max angular momentum in pseudopotentials (lmaxx) =  4

     K-points division:     npool     =       8
     R & G space division:  proc/nbgrp/npool/nimage =      16
     Subspace diagonalization in iterative solution of the eigenvalue problem:
     a serial algorithm will be used


     Parallelization info
     --------------------
     sticks:   dense  smooth     PW     G-vecs:    dense   smooth      PW
     Min         119     119     37                 2505     2505     447
     Max         120     120     38                 2507     2507     449
     Sum        1917    1917    603                40101    40101    7163

     Using Slab Decomposition



     bravais-lattice index     =            7
     lattice parameter (alat)  =      11.0200  a.u.
     unit-cell volume          =     365.0809 (a.u.)^3
     number of atoms/cell      =            2
     number of atomic types    =            1
     number of electrons       =        28.00
     number of Kohn-Sham states=           14
     kinetic-energy cutoff     =      87.0000  Ry
     charge density cutoff     =     348.0000  Ry
     scf convergence threshold =      1.0E-07
     mixing beta               =       0.7000
     number of iterations used =            8  plain     mixing
     Exchange-correlation=  SLA  PW   GGX  GGC
                           (   1   4   2   2   0   0   0)

     celldm(1)=  11.020000  celldm(2)=   0.000000  celldm(3)=   0.545600
     celldm(4)=   0.000000  celldm(5)=   0.000000  celldm(6)=   0.000000

     crystal axes: (cart. coord. in units of alat)
               a(1) = (   0.500000  -0.500000   0.272800 )  
               a(2) = (   0.500000   0.500000   0.272800 )  
               a(3) = (  -0.500000  -0.500000   0.272800 )  

     reciprocal axes: (cart. coord. in units 2 pi/alat)
               b(1) = (  1.000000 -1.000000  0.000000 )  
               b(2) = (  0.000000  1.000000  1.832845 )  
               b(3) = ( -1.000000  0.000000  1.832845 )  


     PseudoPot. # 1 for Sn read from file:
     ./Sn.pw91-n-van.UPF
     MD5 check sum: a38d2a872edd1a4efd76c0a1a38f7031
     Pseudo is Ultrasoft + core correction, Zval = 14.0
     Generated by new atomic code, or converted to UPF format
     Using radial grid of  891 points,  6 beta functions with: 
                l(1) =   0
                l(2) =   0
                l(3) =   1
                l(4) =   1
                l(5) =   2
                l(6) =   2
     Q(r) pseudized with  8 coefficients,  rinner =    1.100   1.100   1.100
                                                       1.100   1.100

     atomic species   valence    mass     pseudopotential
     Sn               14.00   118.70000     Sn( 1.00)

     16 Sym. Ops., with inversion, found (12 have fractional translation)



   Cartesian axes

     site n.     atom                  positions (alat units)
         1        Sn     tau(   1) = (   0.0000000  -0.2500000   0.0682000  )
         2        Sn     tau(   2) = (   0.0000000   0.2500000  -0.0682000  )

     number of k points=    13
                       cart. coord. in units 2pi/alat
        k(    1) = (   0.0000000   0.0000000   0.0000000), wk =   0.0312500
        k(    2) = (  -0.2500000   0.0000000   0.4582111), wk =   0.2500000
        k(    3) = (   0.5000000   0.0000000  -0.9164223), wk =   0.1250000
        k(    4) = (  -0.2500000   0.2500000   0.9164223), wk =   0.2500000
        k(    5) = (   0.5000000   0.2500000  -0.4582111), wk =   0.5000000
        k(    6) = (   0.2500000   0.2500000   0.0000000), wk =   0.1250000
        k(    7) = (   0.5000000  -0.5000000  -1.8328446), wk =   0.0625000
        k(    8) = (   0.0000000   0.0000000   0.9164223), wk =   0.0625000
        k(    9) = (   0.7500000   0.0000000  -0.4582111), wk =   0.2500000
        k(   10) = (   0.5000000   0.0000000   0.0000000), wk =   0.1250000
        k(   11) = (   0.7500000  -0.7500000  -1.8328446), wk =   0.1250000
        k(   12) = (   0.5000000  -0.5000000  -0.9164223), wk =   0.0625000
        k(   13) = (   0.0000000   0.0000000  -1.8328446), wk =   0.0312500

     Dense  grid:    40101 G-vectors     FFT dimensions: (  50,  50,  50)

     Estimated max dynamical RAM per process >       4.53 MB

     Estimated total dynamical RAM >     511.16 MB

     Initial potential from superposition of free atoms

     starting charge      27.9964, renormalised to      28.0000
     Starting wfcs are   18 randomized atomic wfcs

     total cpu time spent up to now is        0.6 secs

     per-process dynamical memory:    12.2 Mb

     Self-consistent Calculation

     iteration #  1     ecut=    87.00 Ry     beta= 0.70
     Davidson diagonalization with overlap
     ethr =  1.00E-02,  avg # of iterations =  1.8

     Threshold (ethr) on eigenvalues was too large:
     Diagonalizing with lowered threshold

     Davidson diagonalization with overlap
     ethr =  2.41E-05,  avg # of iterations =  3.9

     total cpu time spent up to now is        0.7 secs

     total energy              =    -325.57052835 Ry
     estimated scf accuracy    <       0.00693190 Ry

     iteration #  2     ecut=    87.00 Ry     beta= 0.70
     Davidson diagonalization with overlap
     ethr =  2.48E-05,  avg # of iterations =  2.0

     total cpu time spent up to now is        0.8 secs

     total energy              =    -325.57149500 Ry
     estimated scf accuracy    <       0.00056006 Ry

     iteration #  3     ecut=    87.00 Ry     beta= 0.70
     Davidson diagonalization with overlap
     ethr =  2.00E-06,  avg # of iterations =  2.2

     total cpu time spent up to now is        0.9 secs

     total energy              =    -325.57155779 Ry
     estimated scf accuracy    <       0.00004322 Ry

     iteration #  4     ecut=    87.00 Ry     beta= 0.70
     Davidson diagonalization with overlap
     ethr =  1.54E-07,  avg # of iterations =  2.6

     total cpu time spent up to now is        0.9 secs

     total energy              =    -325.57156309 Ry
     estimated scf accuracy    <       0.00000047 Ry

     iteration #  5     ecut=    87.00 Ry     beta= 0.70
     Davidson diagonalization with overlap
     ethr =  1.68E-09,  avg # of iterations =  3.8

     total cpu time spent up to now is        1.0 secs

     End of self-consistent calculation

          k = 0.0000 0.0000 0.0000 (  5013 PWs)   bands (ev):

   -10.8043 -10.7214 -10.6780 -10.6660 -10.5164 -10.5164 -10.5050 -10.5050
   -10.4135 -10.3003  -0.3472   7.1612   8.8398   8.8398

          k =-0.2500 0.0000 0.4582 (  5018 PWs)   bands (ev):

   -10.7684 -10.6408 -10.6357 -10.5945 -10.5721 -10.5307 -10.5222 -10.4992
   -10.4345 -10.3350   0.8910   6.5838   9.0441  11.2833

          k = 0.5000 0.0000-0.9164 (  5026 PWs)   bands (ev):

   -10.7290 -10.6585 -10.6418 -10.6023 -10.5685 -10.5652 -10.4668 -10.4191
   -10.4154 -10.3686   3.8532   5.3957   8.4875   9.1145

          k =-0.2500 0.2500 0.9164 (  5013 PWs)   bands (ev):

   -10.7429 -10.6552 -10.6119 -10.5950 -10.5929 -10.5423 -10.4835 -10.4643
   -10.3875 -10.3595   3.7386   6.0509   7.1235   9.1086

          k = 0.5000 0.2500-0.4582 (  4998 PWs)   bands (ev):

   -10.7115 -10.6521 -10.6484 -10.5945 -10.5775 -10.5201 -10.4866 -10.4787
   -10.4614 -10.3969   2.0034   4.1410   9.3956  10.6283

          k = 0.2500 0.2500 0.0000 (  4997 PWs)   bands (ev):

   -10.7542 -10.7282 -10.6928 -10.6363 -10.5429 -10.4954 -10.4938 -10.4857
   -10.4427 -10.3491   0.2174   4.5877   9.5065  10.5379

          k = 0.5000-0.5000-1.8328 (  4996 PWs)   bands (ev):

   -10.7246 -10.7246 -10.6367 -10.6367 -10.5431 -10.5431 -10.4714 -10.4714
   -10.4322 -10.4322   1.9006   1.9006  11.4186  11.4186

          k = 0.0000 0.0000 0.9164 (  5009 PWs)   bands (ev):

   -10.7344 -10.6268 -10.6268 -10.6076 -10.5622 -10.5622 -10.5382 -10.4451
   -10.3899 -10.3440   3.2954   7.1431   7.9733   9.4591

          k = 0.7500 0.0000-0.4582 (  4996 PWs)   bands (ev):

   -10.6987 -10.6564 -10.5938 -10.5846 -10.5501 -10.5332 -10.5222 -10.4859
   -10.4793 -10.4230   3.0225   4.3597   7.2620   8.4576

          k = 0.5000 0.0000 0.0000 (  5002 PWs)   bands (ev):

   -10.7401 -10.7104 -10.6984 -10.6048 -10.5201 -10.5125 -10.5086 -10.4656
   -10.4637 -10.3941   0.7800   4.3542   7.0801  10.7929

          k = 0.7500-0.7500-1.8328 (  4992 PWs)   bands (ev):

   -10.7311 -10.7311 -10.5989 -10.5989 -10.5353 -10.5353 -10.4856 -10.4856
   -10.4568 -10.4568   2.4049   2.4049   7.9919   7.9919

          k = 0.5000-0.5000-0.9164 (  5032 PWs)   bands (ev):

   -10.7072 -10.7072 -10.6367 -10.6367 -10.5294 -10.5294 -10.4352 -10.4352
   -10.4082 -10.4082   4.8057   4.8057   7.2814   7.2814

          k = 0.0000 0.0000-1.8328 (  4992 PWs)   bands (ev):

   -10.7339 -10.7339 -10.5350 -10.5350 -10.5250 -10.5250 -10.5132 -10.5132
   -10.5004 -10.5004   3.2426   3.2426   6.0123   6.0123

     highest occupied level (ev):    11.4186

!    total energy              =    -325.57156342 Ry
     estimated scf accuracy    <       0.00000003 Ry

     The total energy is the sum of the following terms:
     one-electron contribution =    -107.30673075 Ry
     hartree contribution      =      74.47183078 Ry
     xc contribution           =     -95.22136026 Ry
     ewald contribution        =    -197.51530320 Ry

     convergence has been achieved in   5 iterations

     Writing all to output data dir ./beta-sn-scf/betatin.save/ :
     XML data file, charge density, pseudopotentials, collected wavefunctions

     init_run     :      0.28s CPU      0.33s WALL (       1 calls)
     electrons    :      0.34s CPU      0.39s WALL (       1 calls)

     Called by init_run:
     wfcinit      :      0.02s CPU      0.03s WALL (       1 calls)
     potinit      :      0.01s CPU      0.03s WALL (       1 calls)
     hinit0       :      0.21s CPU      0.22s WALL (       1 calls)

     Called by electrons:
     c_bands      :      0.21s CPU      0.22s WALL (       6 calls)
     sum_band     :      0.06s CPU      0.07s WALL (       6 calls)
     v_of_rho     :      0.04s CPU      0.05s WALL (       6 calls)
     newd         :      0.02s CPU      0.02s WALL (       6 calls)
     mix_rho      :      0.00s CPU      0.01s WALL (       6 calls)

     Called by c_bands:
     init_us_2    :      0.00s CPU      0.00s WALL (      26 calls)
     cegterg      :      0.18s CPU      0.19s WALL (      12 calls)

     Called by *egterg:
     cdiaghg      :      0.02s CPU      0.02s WALL (      50 calls)
     h_psi        :      0.17s CPU      0.18s WALL (      54 calls)
     s_psi        :      0.00s CPU      0.00s WALL (      54 calls)
     g_psi        :      0.00s CPU      0.00s WALL (      40 calls)

     Called by h_psi:
     h_psi:calbec :      0.01s CPU      0.01s WALL (      54 calls)
     vloc_psi     :      0.16s CPU      0.17s WALL (      54 calls)
     add_vuspsi   :      0.00s CPU      0.00s WALL (      54 calls)

     General routines
     calbec       :      0.01s CPU      0.01s WALL (      66 calls)
     fft          :      0.19s CPU      0.20s WALL (      67 calls)
     ffts         :      0.00s CPU      0.00s WALL (       6 calls)
     fftw         :      0.17s CPU      0.18s WALL (    1088 calls)

     Parallel routines

     PWSCF        :      0.93s CPU      1.17s WALL


   This run was terminated on:  16:15:17   5Feb2026            

=------------------------------------------------------------------------------=
   JOB DONE.
=------------------------------------------------------------------------------=
