
     Program PWSCF v.7.3.1 starts on  5Feb2026 at 16: 4:42 

     This program is part of the open-source Quantum ESPRESSO suite
     for quantum simulation of materials; please cite
         "P. Giannozzi et al., J. Phys.:Condens. Matter 21 395502 (2009);
         "P. Giannozzi et al., J. Phys.:Condens. Matter 29 465901 (2017);
         "P. Giannozzi et al., J. Chem. Phys. 152 154105 (2020);
          URL http://www.quantum-espresso.org", 
     in publications or presentations arising from this work. More details at
     http://www.quantum-espresso.org/quote

     Parallel version (MPI), running on   128 processors

     MPI processes distributed on     1 nodes
     241405 MiB available memory on the printing compute node when the environment starts

     Waiting for input...
     Reading input from standard input

     Current dimensions of program PWSCF are:
     Max number of different atomic species (ntypx) = 10
     Max number of k-points (npk) =  40000
     Max angular momentum in pseudopotentials (lmaxx) =  4

     K-points division:     npool     =       8
     R & G space division:  proc/nbgrp/npool/nimage =      16
     Subspace diagonalization in iterative solution of the eigenvalue problem:
     a serial algorithm will be used


     Parallelization info
     --------------------
     sticks:   dense  smooth     PW     G-vecs:    dense   smooth      PW
     Min          31      31     11                  338      338      80
     Max          32      32     12                  340      340      82
     Sum         499     499    189                 5421     5421    1301

     Using Slab Decomposition



     bravais-lattice index     =            7
     lattice parameter (alat)  =      11.0200  a.u.
     unit-cell volume          =     365.0809 (a.u.)^3
     number of atoms/cell      =            2
     number of atomic types    =            1
     number of electrons       =        28.00
     number of Kohn-Sham states=           14
     kinetic-energy cutoff     =      23.0000  Ry
     charge density cutoff     =      92.0000  Ry
     scf convergence threshold =      1.0E-07
     mixing beta               =       0.7000
     number of iterations used =            8  plain     mixing
     Exchange-correlation=  SLA  PW   GGX  GGC
                           (   1   4   2   2   0   0   0)

     celldm(1)=  11.020000  celldm(2)=   0.000000  celldm(3)=   0.545600
     celldm(4)=   0.000000  celldm(5)=   0.000000  celldm(6)=   0.000000

     crystal axes: (cart. coord. in units of alat)
               a(1) = (   0.500000  -0.500000   0.272800 )  
               a(2) = (   0.500000   0.500000   0.272800 )  
               a(3) = (  -0.500000  -0.500000   0.272800 )  

     reciprocal axes: (cart. coord. in units 2 pi/alat)
               b(1) = (  1.000000 -1.000000  0.000000 )  
               b(2) = (  0.000000  1.000000  1.832845 )  
               b(3) = ( -1.000000  0.000000  1.832845 )  


     PseudoPot. # 1 for Sn read from file:
     ./Sn.pw91-n-van.UPF
     MD5 check sum: a38d2a872edd1a4efd76c0a1a38f7031
     Pseudo is Ultrasoft + core correction, Zval = 14.0
     Generated by new atomic code, or converted to UPF format
     Using radial grid of  891 points,  6 beta functions with: 
                l(1) =   0
                l(2) =   0
                l(3) =   1
                l(4) =   1
                l(5) =   2
                l(6) =   2
     Q(r) pseudized with  8 coefficients,  rinner =    1.100   1.100   1.100
                                                       1.100   1.100

     atomic species   valence    mass     pseudopotential
     Sn               14.00   118.70000     Sn( 1.00)

     16 Sym. Ops., with inversion, found (12 have fractional translation)



   Cartesian axes

     site n.     atom                  positions (alat units)
         1        Sn     tau(   1) = (   0.0000000  -0.2500000   0.0682000  )
         2        Sn     tau(   2) = (   0.0000000   0.2500000  -0.0682000  )

     number of k points=    13
                       cart. coord. in units 2pi/alat
        k(    1) = (   0.0000000   0.0000000   0.0000000), wk =   0.0312500
        k(    2) = (  -0.2500000   0.0000000   0.4582111), wk =   0.2500000
        k(    3) = (   0.5000000   0.0000000  -0.9164223), wk =   0.1250000
        k(    4) = (  -0.2500000   0.2500000   0.9164223), wk =   0.2500000
        k(    5) = (   0.5000000   0.2500000  -0.4582111), wk =   0.5000000
        k(    6) = (   0.2500000   0.2500000   0.0000000), wk =   0.1250000
        k(    7) = (   0.5000000  -0.5000000  -1.8328446), wk =   0.0625000
        k(    8) = (   0.0000000   0.0000000   0.9164223), wk =   0.0625000
        k(    9) = (   0.7500000   0.0000000  -0.4582111), wk =   0.2500000
        k(   10) = (   0.5000000   0.0000000   0.0000000), wk =   0.1250000
        k(   11) = (   0.7500000  -0.7500000  -1.8328446), wk =   0.1250000
        k(   12) = (   0.5000000  -0.5000000  -0.9164223), wk =   0.0625000
        k(   13) = (   0.0000000   0.0000000  -1.8328446), wk =   0.0312500

     Dense  grid:     5421 G-vectors     FFT dimensions: (  30,  30,  30)

     Estimated max dynamical RAM per process >       1.21 MB

     Estimated total dynamical RAM >     145.74 MB

     Check: negative core charge=   -0.000005

     Initial potential from superposition of free atoms

     starting charge      27.9964, renormalised to      28.0000
     Starting wfcs are   18 randomized atomic wfcs

     total cpu time spent up to now is        0.5 secs

     per-process dynamical memory:     8.6 Mb

     Self-consistent Calculation

     iteration #  1     ecut=    23.00 Ry     beta= 0.70
     Davidson diagonalization with overlap
     ethr =  1.00E-02,  avg # of iterations =  1.8

     Threshold (ethr) on eigenvalues was too large:
     Diagonalizing with lowered threshold

     Davidson diagonalization with overlap
     ethr =  3.13E-05,  avg # of iterations =  3.5

     total cpu time spent up to now is        0.6 secs

     total energy              =    -325.47024789 Ry
     estimated scf accuracy    <       0.00905399 Ry

     iteration #  2     ecut=    23.00 Ry     beta= 0.70
     Davidson diagonalization with overlap
     ethr =  3.23E-05,  avg # of iterations =  2.0

     total cpu time spent up to now is        0.6 secs

     total energy              =    -325.47205990 Ry
     estimated scf accuracy    <       0.00064972 Ry

     iteration #  3     ecut=    23.00 Ry     beta= 0.70
     Davidson diagonalization with overlap
     ethr =  2.32E-06,  avg # of iterations =  2.0

     total cpu time spent up to now is        0.7 secs

     total energy              =    -325.47216100 Ry
     estimated scf accuracy    <       0.00005001 Ry

     iteration #  4     ecut=    23.00 Ry     beta= 0.70
     Davidson diagonalization with overlap
     ethr =  1.79E-07,  avg # of iterations =  2.7

     total cpu time spent up to now is        0.7 secs

     total energy              =    -325.47216702 Ry
     estimated scf accuracy    <       0.00000056 Ry

     iteration #  5     ecut=    23.00 Ry     beta= 0.70
     Davidson diagonalization with overlap
     ethr =  1.99E-09,  avg # of iterations =  3.8

     total cpu time spent up to now is        0.7 secs

     End of self-consistent calculation

          k = 0.0000 0.0000 0.0000 (   681 PWs)   bands (ev):

   -10.8578 -10.7703 -10.7181 -10.7108 -10.5347 -10.5347 -10.5263 -10.5263
   -10.4208 -10.3684  -0.3406   7.1542   8.8485   8.8485

          k =-0.2500 0.0000 0.4582 (   684 PWs)   bands (ev):

   -10.8106 -10.6890 -10.6703 -10.6340 -10.6126 -10.5645 -10.5591 -10.5309
   -10.4748 -10.3807   0.8968   6.5816   9.0541  11.2882

          k = 0.5000 0.0000-0.9164 (   676 PWs)   bands (ev):

   -10.7597 -10.7106 -10.6967 -10.6292 -10.6058 -10.6013 -10.4973 -10.4531
   -10.4454 -10.3979   3.8537   5.4013   8.4886   9.1227

          k =-0.2500 0.2500 0.9164 (   679 PWs)   bands (ev):

   -10.7982 -10.6905 -10.6592 -10.6424 -10.6241 -10.5678 -10.5124 -10.4950
   -10.4210 -10.4032   3.7401   6.0510   7.1338   9.1167

          k = 0.5000 0.2500-0.4582 (   686 PWs)   bands (ev):

   -10.7617 -10.6995 -10.6955 -10.6353 -10.6229 -10.5604 -10.5275 -10.5165
   -10.5041 -10.4422   2.0083   4.1435   9.4035  10.6366

          k = 0.2500 0.2500 0.0000 (   674 PWs)   bands (ev):

   -10.7854 -10.7570 -10.7433 -10.6736 -10.5640 -10.5235 -10.5161 -10.5111
   -10.4682 -10.3864   0.2237   4.5897   9.5150  10.5429

          k = 0.5000-0.5000-1.8328 (   672 PWs)   bands (ev):

   -10.7692 -10.7692 -10.6643 -10.6643 -10.5698 -10.5698 -10.5011 -10.5011
   -10.4773 -10.4773   1.9056   1.9056  11.4265  11.4265

          k = 0.0000 0.0000 0.9164 (   669 PWs)   bands (ev):

   -10.7737 -10.6651 -10.6651 -10.6299 -10.5831 -10.5831 -10.5621 -10.4694
   -10.4271 -10.3765   3.2979   7.1408   7.9807   9.4696

          k = 0.7500 0.0000-0.4582 (   670 PWs)   bands (ev):

   -10.7347 -10.6988 -10.6329 -10.6087 -10.5850 -10.5571 -10.5517 -10.5196
   -10.5071 -10.4683   3.0255   4.3591   7.2752   8.4668

          k = 0.5000 0.0000 0.0000 (   696 PWs)   bands (ev):

   -10.8025 -10.7730 -10.7457 -10.6482 -10.5665 -10.5590 -10.5583 -10.5069
   -10.5051 -10.4506   0.7857   4.3538   7.0928  10.8006

          k = 0.7500-0.7500-1.8328 (   686 PWs)   bands (ev):

   -10.7918 -10.7918 -10.6445 -10.6445 -10.5693 -10.5693 -10.5281 -10.5281
   -10.5024 -10.5024   2.4086   2.4086   8.0016   8.0016

          k = 0.5000-0.5000-0.9164 (   680 PWs)   bands (ev):

   -10.7609 -10.7609 -10.6676 -10.6676 -10.5670 -10.5670 -10.4693 -10.4693
   -10.4491 -10.4491   4.8054   4.8054   7.2932   7.2932

          k = 0.0000 0.0000-1.8328 (   692 PWs)   bands (ev):

   -10.7887 -10.7887 -10.5877 -10.5877 -10.5769 -10.5769 -10.5557 -10.5557
   -10.5507 -10.5507   3.2423   3.2423   6.0262   6.0262

     highest occupied level (ev):    11.4265

!    total energy              =    -325.47216731 Ry
     estimated scf accuracy    <       0.00000007 Ry

     The total energy is the sum of the following terms:
     one-electron contribution =    -107.10168331 Ry
     hartree contribution      =      74.31672739 Ry
     xc contribution           =     -95.17190815 Ry
     ewald contribution        =    -197.51530324 Ry

     convergence has been achieved in   5 iterations

     Writing all to output data dir ./beta-sn-scf/betatin.save/ :
     XML data file, charge density, pseudopotentials, collected wavefunctions

     init_run     :      0.21s CPU      0.26s WALL (       1 calls)
     electrons    :      0.10s CPU      0.17s WALL (       1 calls)

     Called by init_run:
     wfcinit      :      0.01s CPU      0.01s WALL (       1 calls)
     potinit      :      0.01s CPU      0.02s WALL (       1 calls)
     hinit0       :      0.18s CPU      0.19s WALL (       1 calls)

     Called by electrons:
     c_bands      :      0.06s CPU      0.08s WALL (       6 calls)
     sum_band     :      0.02s CPU      0.03s WALL (       6 calls)
     v_of_rho     :      0.01s CPU      0.02s WALL (       6 calls)
     newd         :      0.00s CPU      0.01s WALL (       6 calls)
     mix_rho      :      0.00s CPU      0.00s WALL (       6 calls)

     Called by c_bands:
     init_us_2    :      0.00s CPU      0.00s WALL (      26 calls)
     cegterg      :      0.05s CPU      0.07s WALL (      12 calls)

     Called by *egterg:
     cdiaghg      :      0.01s CPU      0.02s WALL (      47 calls)
     h_psi        :      0.04s CPU      0.05s WALL (      51 calls)
     s_psi        :      0.00s CPU      0.00s WALL (      51 calls)
     g_psi        :      0.00s CPU      0.00s WALL (      37 calls)

     Called by h_psi:
     h_psi:calbec :      0.00s CPU      0.00s WALL (      51 calls)
     vloc_psi     :      0.03s CPU      0.05s WALL (      51 calls)
     add_vuspsi   :      0.00s CPU      0.00s WALL (      51 calls)

     General routines
     calbec       :      0.00s CPU      0.00s WALL (      63 calls)
     fft          :      0.17s CPU      0.17s WALL (      67 calls)
     ffts         :      0.00s CPU      0.00s WALL (       6 calls)
     fftw         :      0.04s CPU      0.05s WALL (    1120 calls)

     Parallel routines

     PWSCF        :      0.64s CPU      0.92s WALL


   This run was terminated on:  16: 4:43   5Feb2026            

=------------------------------------------------------------------------------=
   JOB DONE.
=------------------------------------------------------------------------------=
