
     Program PWSCF v.7.3.1 starts on  5Feb2026 at 16:19:41 

     This program is part of the open-source Quantum ESPRESSO suite
     for quantum simulation of materials; please cite
         "P. Giannozzi et al., J. Phys.:Condens. Matter 21 395502 (2009);
         "P. Giannozzi et al., J. Phys.:Condens. Matter 29 465901 (2017);
         "P. Giannozzi et al., J. Chem. Phys. 152 154105 (2020);
          URL http://www.quantum-espresso.org", 
     in publications or presentations arising from this work. More details at
     http://www.quantum-espresso.org/quote

     Parallel version (MPI), running on   128 processors

     MPI processes distributed on     1 nodes
     241324 MiB available memory on the printing compute node when the environment starts

     Waiting for input...
     Reading input from standard input

     Current dimensions of program PWSCF are:
     Max number of different atomic species (ntypx) = 10
     Max number of k-points (npk) =  40000
     Max angular momentum in pseudopotentials (lmaxx) =  4

     K-points division:     npool     =       8
     R & G space division:  proc/nbgrp/npool/nimage =      16
     Subspace diagonalization in iterative solution of the eigenvalue problem:
     a serial algorithm will be used


     Parallelization info
     --------------------
     sticks:   dense  smooth     PW     G-vecs:    dense   smooth      PW
     Min         151     151     47                 3596     3596     626
     Max         152     152     48                 3598     3598     628
     Sum        2431    2431    763                57557    57557   10027

     Using Slab Decomposition



     bravais-lattice index     =            7
     lattice parameter (alat)  =      11.0200  a.u.
     unit-cell volume          =     365.0809 (a.u.)^3
     number of atoms/cell      =            2
     number of atomic types    =            1
     number of electrons       =        28.00
     number of Kohn-Sham states=           14
     kinetic-energy cutoff     =     111.0000  Ry
     charge density cutoff     =     444.0000  Ry
     scf convergence threshold =      1.0E-07
     mixing beta               =       0.7000
     number of iterations used =            8  plain     mixing
     Exchange-correlation=  SLA  PW   GGX  GGC
                           (   1   4   2   2   0   0   0)

     celldm(1)=  11.020000  celldm(2)=   0.000000  celldm(3)=   0.545600
     celldm(4)=   0.000000  celldm(5)=   0.000000  celldm(6)=   0.000000

     crystal axes: (cart. coord. in units of alat)
               a(1) = (   0.500000  -0.500000   0.272800 )  
               a(2) = (   0.500000   0.500000   0.272800 )  
               a(3) = (  -0.500000  -0.500000   0.272800 )  

     reciprocal axes: (cart. coord. in units 2 pi/alat)
               b(1) = (  1.000000 -1.000000  0.000000 )  
               b(2) = (  0.000000  1.000000  1.832845 )  
               b(3) = ( -1.000000  0.000000  1.832845 )  


     PseudoPot. # 1 for Sn read from file:
     ./Sn.pw91-n-van.UPF
     MD5 check sum: a38d2a872edd1a4efd76c0a1a38f7031
     Pseudo is Ultrasoft + core correction, Zval = 14.0
     Generated by new atomic code, or converted to UPF format
     Using radial grid of  891 points,  6 beta functions with: 
                l(1) =   0
                l(2) =   0
                l(3) =   1
                l(4) =   1
                l(5) =   2
                l(6) =   2
     Q(r) pseudized with  8 coefficients,  rinner =    1.100   1.100   1.100
                                                       1.100   1.100

     atomic species   valence    mass     pseudopotential
     Sn               14.00   118.70000     Sn( 1.00)

     16 Sym. Ops., with inversion, found (12 have fractional translation)



   Cartesian axes

     site n.     atom                  positions (alat units)
         1        Sn     tau(   1) = (   0.0000000  -0.2500000   0.0682000  )
         2        Sn     tau(   2) = (   0.0000000   0.2500000  -0.0682000  )

     number of k points=    13
                       cart. coord. in units 2pi/alat
        k(    1) = (   0.0000000   0.0000000   0.0000000), wk =   0.0312500
        k(    2) = (  -0.2500000   0.0000000   0.4582111), wk =   0.2500000
        k(    3) = (   0.5000000   0.0000000  -0.9164223), wk =   0.1250000
        k(    4) = (  -0.2500000   0.2500000   0.9164223), wk =   0.2500000
        k(    5) = (   0.5000000   0.2500000  -0.4582111), wk =   0.5000000
        k(    6) = (   0.2500000   0.2500000   0.0000000), wk =   0.1250000
        k(    7) = (   0.5000000  -0.5000000  -1.8328446), wk =   0.0625000
        k(    8) = (   0.0000000   0.0000000   0.9164223), wk =   0.0625000
        k(    9) = (   0.7500000   0.0000000  -0.4582111), wk =   0.2500000
        k(   10) = (   0.5000000   0.0000000   0.0000000), wk =   0.1250000
        k(   11) = (   0.7500000  -0.7500000  -1.8328446), wk =   0.1250000
        k(   12) = (   0.5000000  -0.5000000  -0.9164223), wk =   0.0625000
        k(   13) = (   0.0000000   0.0000000  -1.8328446), wk =   0.0312500

     Dense  grid:    57557 G-vectors     FFT dimensions: (  60,  60,  60)

     Estimated max dynamical RAM per process >       6.05 MB

     Estimated total dynamical RAM >     675.71 MB

     Initial potential from superposition of free atoms

     starting charge      27.9964, renormalised to      28.0000
     Starting wfcs are   18 randomized atomic wfcs

     total cpu time spent up to now is        0.9 secs

     per-process dynamical memory:    12.4 Mb

     Self-consistent Calculation

     iteration #  1     ecut=   111.00 Ry     beta= 0.70
     Davidson diagonalization with overlap
     ethr =  1.00E-02,  avg # of iterations =  1.8

     Threshold (ethr) on eigenvalues was too large:
     Diagonalizing with lowered threshold

     Davidson diagonalization with overlap
     ethr =  2.40E-05,  avg # of iterations =  3.9

     total cpu time spent up to now is        1.0 secs

     total energy              =    -325.57242027 Ry
     estimated scf accuracy    <       0.00692038 Ry

     iteration #  2     ecut=   111.00 Ry     beta= 0.70
     Davidson diagonalization with overlap
     ethr =  2.47E-05,  avg # of iterations =  2.0

     total cpu time spent up to now is        1.1 secs

     total energy              =    -325.57340447 Ry
     estimated scf accuracy    <       0.00055793 Ry

     iteration #  3     ecut=   111.00 Ry     beta= 0.70
     Davidson diagonalization with overlap
     ethr =  1.99E-06,  avg # of iterations =  2.2

     total cpu time spent up to now is        1.2 secs

     total energy              =    -325.57347010 Ry
     estimated scf accuracy    <       0.00004169 Ry

     iteration #  4     ecut=   111.00 Ry     beta= 0.70
     Davidson diagonalization with overlap
     ethr =  1.49E-07,  avg # of iterations =  3.1

     total cpu time spent up to now is        1.3 secs

     total energy              =    -325.57347651 Ry
     estimated scf accuracy    <       0.00000044 Ry

     iteration #  5     ecut=   111.00 Ry     beta= 0.70
     Davidson diagonalization with overlap
     ethr =  1.58E-09,  avg # of iterations =  3.5

     total cpu time spent up to now is        1.4 secs

     End of self-consistent calculation

          k = 0.0000 0.0000 0.0000 (  7179 PWs)   bands (ev):

   -10.8052 -10.7223 -10.6785 -10.6671 -10.5168 -10.5168 -10.5058 -10.5058
   -10.4138 -10.3018  -0.3473   7.1612   8.8397   8.8397

          k =-0.2500 0.0000 0.4582 (  7201 PWs)   bands (ev):

   -10.7692 -10.6412 -10.6365 -10.5953 -10.5728 -10.5315 -10.5230 -10.5001
   -10.4349 -10.3362   0.8909   6.5838   9.0440  11.2832

          k = 0.5000 0.0000-0.9164 (  7210 PWs)   bands (ev):

   -10.7298 -10.6593 -10.6425 -10.6030 -10.5690 -10.5661 -10.4673 -10.4200
   -10.4163 -10.3697   3.8532   5.3956   8.4874   9.1144

          k =-0.2500 0.2500 0.9164 (  7217 PWs)   bands (ev):

   -10.7437 -10.6559 -10.6126 -10.5956 -10.5938 -10.5432 -10.4843 -10.4649
   -10.3884 -10.3607   3.7386   6.0509   7.1234   9.1085

          k = 0.5000 0.2500-0.4582 (  7208 PWs)   bands (ev):

   -10.7125 -10.6529 -10.6493 -10.5953 -10.5781 -10.5209 -10.4873 -10.4796
   -10.4623 -10.3979   2.0033   4.1409   9.3955  10.6282

          k = 0.2500 0.2500 0.0000 (  7180 PWs)   bands (ev):

   -10.7552 -10.7291 -10.6938 -10.6367 -10.5437 -10.4961 -10.4944 -10.4865
   -10.4432 -10.3502   0.2173   4.5877   9.5064  10.5378

          k = 0.5000-0.5000-1.8328 (  7166 PWs)   bands (ev):

   -10.7254 -10.7254 -10.6377 -10.6377 -10.5436 -10.5436 -10.4722 -10.4722
   -10.4330 -10.4330   1.9005   1.9005  11.4185  11.4185

          k = 0.0000 0.0000 0.9164 (  7226 PWs)   bands (ev):

   -10.7355 -10.6275 -10.6275 -10.6081 -10.5630 -10.5630 -10.5391 -10.4457
   -10.3909 -10.3451   3.2953   7.1430   7.9732   9.4590

          k = 0.7500 0.0000-0.4582 (  7215 PWs)   bands (ev):

   -10.6997 -10.6573 -10.5946 -10.5852 -10.5508 -10.5341 -10.5231 -10.4866
   -10.4802 -10.4240   3.0225   4.3597   7.2618   8.4574

          k = 0.5000 0.0000 0.0000 (  7218 PWs)   bands (ev):

   -10.7410 -10.7114 -10.6994 -10.6053 -10.5211 -10.5132 -10.5094 -10.4665
   -10.4643 -10.3952   0.7799   4.3542   7.0799  10.7927

          k = 0.7500-0.7500-1.8328 (  7210 PWs)   bands (ev):

   -10.7320 -10.7320 -10.5999 -10.5999 -10.5359 -10.5359 -10.4865 -10.4865
   -10.4577 -10.4577   2.4048   2.4048   7.9917   7.9917

          k = 0.5000-0.5000-0.9164 (  7184 PWs)   bands (ev):

   -10.7079 -10.7079 -10.6374 -10.6374 -10.5299 -10.5299 -10.4361 -10.4361
   -10.4090 -10.4090   4.8057   4.8057   7.2813   7.2813

          k = 0.0000 0.0000-1.8328 (  7206 PWs)   bands (ev):

   -10.7349 -10.7349 -10.5360 -10.5360 -10.5257 -10.5257 -10.5139 -10.5139
   -10.5012 -10.5012   3.2426   3.2426   6.0121   6.0121

     highest occupied level (ev):    11.4185

!    total energy              =    -325.57347671 Ry
     estimated scf accuracy    <       0.00000002 Ry

     The total energy is the sum of the following terms:
     one-electron contribution =    -107.30884081 Ry
     hartree contribution      =      74.47193065 Ry
     xc contribution           =     -95.22126335 Ry
     ewald contribution        =    -197.51530320 Ry

     convergence has been achieved in   5 iterations

     Writing all to output data dir ./beta-sn-scf/betatin.save/ :
     XML data file, charge density, pseudopotentials, collected wavefunctions

     init_run     :      0.53s CPU      0.59s WALL (       1 calls)
     electrons    :      0.45s CPU      0.51s WALL (       1 calls)

     Called by init_run:
     wfcinit      :      0.02s CPU      0.03s WALL (       1 calls)
     potinit      :      0.02s CPU      0.02s WALL (       1 calls)
     hinit0       :      0.45s CPU      0.47s WALL (       1 calls)

     Called by electrons:
     c_bands      :      0.26s CPU      0.28s WALL (       6 calls)
     sum_band     :      0.08s CPU      0.09s WALL (       6 calls)
     v_of_rho     :      0.07s CPU      0.08s WALL (       6 calls)
     newd         :      0.02s CPU      0.03s WALL (       6 calls)
     mix_rho      :      0.01s CPU      0.01s WALL (       6 calls)

     Called by c_bands:
     init_us_2    :      0.00s CPU      0.01s WALL (      26 calls)
     cegterg      :      0.24s CPU      0.25s WALL (      12 calls)

     Called by *egterg:
     cdiaghg      :      0.02s CPU      0.02s WALL (      50 calls)
     h_psi        :      0.21s CPU      0.23s WALL (      54 calls)
     s_psi        :      0.00s CPU      0.00s WALL (      54 calls)
     g_psi        :      0.00s CPU      0.00s WALL (      40 calls)

     Called by h_psi:
     h_psi:calbec :      0.01s CPU      0.01s WALL (      54 calls)
     vloc_psi     :      0.20s CPU      0.21s WALL (      54 calls)
     add_vuspsi   :      0.00s CPU      0.01s WALL (      54 calls)

     General routines
     calbec       :      0.01s CPU      0.01s WALL (      66 calls)
     fft          :      0.44s CPU      0.46s WALL (      67 calls)
     ffts         :      0.01s CPU      0.01s WALL (       6 calls)
     fftw         :      0.20s CPU      0.22s WALL (    1090 calls)

     Parallel routines

     PWSCF        :      1.22s CPU      1.48s WALL


   This run was terminated on:  16:19:43   5Feb2026            

=------------------------------------------------------------------------------=
   JOB DONE.
=------------------------------------------------------------------------------=
