
     Program PWSCF v.7.3.1 starts on  5Feb2026 at 16: 8:49 

     This program is part of the open-source Quantum ESPRESSO suite
     for quantum simulation of materials; please cite
         "P. Giannozzi et al., J. Phys.:Condens. Matter 21 395502 (2009);
         "P. Giannozzi et al., J. Phys.:Condens. Matter 29 465901 (2017);
         "P. Giannozzi et al., J. Chem. Phys. 152 154105 (2020);
          URL http://www.quantum-espresso.org", 
     in publications or presentations arising from this work. More details at
     http://www.quantum-espresso.org/quote

     Parallel version (MPI), running on   128 processors

     MPI processes distributed on     1 nodes
     241365 MiB available memory on the printing compute node when the environment starts

     Waiting for input...
     Reading input from standard input

     Current dimensions of program PWSCF are:
     Max number of different atomic species (ntypx) = 10
     Max number of k-points (npk) =  40000
     Max angular momentum in pseudopotentials (lmaxx) =  4

     K-points division:     npool     =       8
     R & G space division:  proc/nbgrp/npool/nimage =      16
     Subspace diagonalization in iterative solution of the eigenvalue problem:
     a serial algorithm will be used


     Parallelization info
     --------------------
     sticks:   dense  smooth     PW     G-vecs:    dense   smooth      PW
     Min          67      67     22                 1056     1056     210
     Max          68      68     23                 1058     1058     212
     Sum        1075    1075    363                16913    16913    3371

     Using Slab Decomposition



     bravais-lattice index     =            7
     lattice parameter (alat)  =      11.0200  a.u.
     unit-cell volume          =     365.0809 (a.u.)^3
     number of atoms/cell      =            2
     number of atomic types    =            1
     number of electrons       =        28.00
     number of Kohn-Sham states=           14
     kinetic-energy cutoff     =      49.0000  Ry
     charge density cutoff     =     196.0000  Ry
     scf convergence threshold =      1.0E-07
     mixing beta               =       0.7000
     number of iterations used =            8  plain     mixing
     Exchange-correlation=  SLA  PW   GGX  GGC
                           (   1   4   2   2   0   0   0)

     celldm(1)=  11.020000  celldm(2)=   0.000000  celldm(3)=   0.545600
     celldm(4)=   0.000000  celldm(5)=   0.000000  celldm(6)=   0.000000

     crystal axes: (cart. coord. in units of alat)
               a(1) = (   0.500000  -0.500000   0.272800 )  
               a(2) = (   0.500000   0.500000   0.272800 )  
               a(3) = (  -0.500000  -0.500000   0.272800 )  

     reciprocal axes: (cart. coord. in units 2 pi/alat)
               b(1) = (  1.000000 -1.000000  0.000000 )  
               b(2) = (  0.000000  1.000000  1.832845 )  
               b(3) = ( -1.000000  0.000000  1.832845 )  


     PseudoPot. # 1 for Sn read from file:
     ./Sn.pw91-n-van.UPF
     MD5 check sum: a38d2a872edd1a4efd76c0a1a38f7031
     Pseudo is Ultrasoft + core correction, Zval = 14.0
     Generated by new atomic code, or converted to UPF format
     Using radial grid of  891 points,  6 beta functions with: 
                l(1) =   0
                l(2) =   0
                l(3) =   1
                l(4) =   1
                l(5) =   2
                l(6) =   2
     Q(r) pseudized with  8 coefficients,  rinner =    1.100   1.100   1.100
                                                       1.100   1.100

     atomic species   valence    mass     pseudopotential
     Sn               14.00   118.70000     Sn( 1.00)

     16 Sym. Ops., with inversion, found (12 have fractional translation)



   Cartesian axes

     site n.     atom                  positions (alat units)
         1        Sn     tau(   1) = (   0.0000000  -0.2500000   0.0682000  )
         2        Sn     tau(   2) = (   0.0000000   0.2500000  -0.0682000  )

     number of k points=    13
                       cart. coord. in units 2pi/alat
        k(    1) = (   0.0000000   0.0000000   0.0000000), wk =   0.0312500
        k(    2) = (  -0.2500000   0.0000000   0.4582111), wk =   0.2500000
        k(    3) = (   0.5000000   0.0000000  -0.9164223), wk =   0.1250000
        k(    4) = (  -0.2500000   0.2500000   0.9164223), wk =   0.2500000
        k(    5) = (   0.5000000   0.2500000  -0.4582111), wk =   0.5000000
        k(    6) = (   0.2500000   0.2500000   0.0000000), wk =   0.1250000
        k(    7) = (   0.5000000  -0.5000000  -1.8328446), wk =   0.0625000
        k(    8) = (   0.0000000   0.0000000   0.9164223), wk =   0.0625000
        k(    9) = (   0.7500000   0.0000000  -0.4582111), wk =   0.2500000
        k(   10) = (   0.5000000   0.0000000   0.0000000), wk =   0.1250000
        k(   11) = (   0.7500000  -0.7500000  -1.8328446), wk =   0.1250000
        k(   12) = (   0.5000000  -0.5000000  -0.9164223), wk =   0.0625000
        k(   13) = (   0.0000000   0.0000000  -1.8328446), wk =   0.0312500

     Dense  grid:    16913 G-vectors     FFT dimensions: (  40,  40,  40)

     Estimated max dynamical RAM per process >       2.44 MB

     Estimated total dynamical RAM >     283.89 MB

     Initial potential from superposition of free atoms

     starting charge      27.9964, renormalised to      28.0000
     Starting wfcs are   18 randomized atomic wfcs

     total cpu time spent up to now is        0.7 secs

     per-process dynamical memory:    10.0 Mb

     Self-consistent Calculation

     iteration #  1     ecut=    49.00 Ry     beta= 0.70
     Davidson diagonalization with overlap
     ethr =  1.00E-02,  avg # of iterations =  1.8

     Threshold (ethr) on eigenvalues was too large:
     Diagonalizing with lowered threshold

     Davidson diagonalization with overlap
     ethr =  2.46E-05,  avg # of iterations =  3.8

     negative rho (up, down):  3.840E-05 0.000E+00

     total cpu time spent up to now is        0.8 secs

     total energy              =    -325.55957665 Ry
     estimated scf accuracy    <       0.00702235 Ry

     iteration #  2     ecut=    49.00 Ry     beta= 0.70
     Davidson diagonalization with overlap
     ethr =  2.51E-05,  avg # of iterations =  2.0

     negative rho (up, down):  5.111E-05 0.000E+00

     total cpu time spent up to now is        0.8 secs

     total energy              =    -325.56059766 Ry
     estimated scf accuracy    <       0.00056529 Ry

     iteration #  3     ecut=    49.00 Ry     beta= 0.70
     Davidson diagonalization with overlap
     ethr =  2.02E-06,  avg # of iterations =  2.2

     negative rho (up, down):  5.938E-05 0.000E+00

     total cpu time spent up to now is        0.9 secs

     total energy              =    -325.56066473 Ry
     estimated scf accuracy    <       0.00004353 Ry

     iteration #  4     ecut=    49.00 Ry     beta= 0.70
     Davidson diagonalization with overlap
     ethr =  1.55E-07,  avg # of iterations =  2.9

     negative rho (up, down):  5.921E-05 0.000E+00

     total cpu time spent up to now is        0.9 secs

     total energy              =    -325.56067053 Ry
     estimated scf accuracy    <       0.00000036 Ry

     iteration #  5     ecut=    49.00 Ry     beta= 0.70
     Davidson diagonalization with overlap
     ethr =  1.29E-09,  avg # of iterations =  3.9

     negative rho (up, down):  5.921E-05 0.000E+00

     total cpu time spent up to now is        0.9 secs

     End of self-consistent calculation

          k = 0.0000 0.0000 0.0000 (  2127 PWs)   bands (ev):

   -10.7992 -10.7163 -10.6729 -10.6609 -10.5108 -10.5108 -10.4997 -10.4997
   -10.4079 -10.2950  -0.3480   7.1596   8.8393   8.8393

          k =-0.2500 0.0000 0.4582 (  2116 PWs)   bands (ev):

   -10.7632 -10.6354 -10.6305 -10.5892 -10.5666 -10.5254 -10.5169 -10.4939
   -10.4289 -10.3296   0.8902   6.5825   9.0438  11.2826

          k = 0.5000 0.0000-0.9164 (  2112 PWs)   bands (ev):

   -10.7238 -10.6532 -10.6365 -10.5971 -10.5629 -10.5598 -10.4613 -10.4138
   -10.4100 -10.3633   3.8522   5.3949   8.4864   9.1140

          k =-0.2500 0.2500 0.9164 (  2120 PWs)   bands (ev):

   -10.7377 -10.6498 -10.6065 -10.5896 -10.5877 -10.5370 -10.4782 -10.4589
   -10.3823 -10.3542   3.7376   6.0498   7.1230   9.1080

          k = 0.5000 0.2500-0.4582 (  2112 PWs)   bands (ev):

   -10.7064 -10.6468 -10.6432 -10.5891 -10.5722 -10.5147 -10.4812 -10.4733
   -10.4561 -10.3915   2.0026   4.1400   9.3951  10.6279

          k = 0.2500 0.2500 0.0000 (  2109 PWs)   bands (ev):

   -10.7491 -10.7231 -10.6877 -10.6309 -10.5375 -10.4900 -10.4883 -10.4802
   -10.4372 -10.3436   0.2167   4.5867   9.5061  10.5372

          k = 0.5000-0.5000-1.8328 (  2114 PWs)   bands (ev):

   -10.7194 -10.7194 -10.6315 -10.6315 -10.5376 -10.5376 -10.4660 -10.4660
   -10.4266 -10.4266   1.8997   1.8997  11.4182  11.4182

          k = 0.0000 0.0000 0.9164 (  2107 PWs)   bands (ev):

   -10.7294 -10.6214 -10.6214 -10.6021 -10.5569 -10.5569 -10.5331 -10.4395
   -10.3847 -10.3386   3.2944   7.1418   7.9726   9.4588

          k = 0.7500 0.0000-0.4582 (  2110 PWs)   bands (ev):

   -10.6936 -10.6512 -10.5885 -10.5792 -10.5446 -10.5279 -10.5169 -10.4804
   -10.4739 -10.4176   3.0216   4.3586   7.2618   8.4571

          k = 0.5000 0.0000 0.0000 (  2124 PWs)   bands (ev):

   -10.7350 -10.7053 -10.6933 -10.5993 -10.5149 -10.5070 -10.5031 -10.4602
   -10.4582 -10.3887   0.7792   4.3532   7.0798  10.7924

          k = 0.7500-0.7500-1.8328 (  2122 PWs)   bands (ev):

   -10.7259 -10.7259 -10.5937 -10.5937 -10.5298 -10.5298 -10.4802 -10.4802
   -10.4513 -10.4513   2.4040   2.4040   7.9915   7.9915

          k = 0.5000-0.5000-0.9164 (  2092 PWs)   bands (ev):

   -10.7018 -10.7018 -10.6314 -10.6314 -10.5238 -10.5238 -10.4297 -10.4297
   -10.4029 -10.4029   4.8046   4.8046   7.2811   7.2811

          k = 0.0000 0.0000-1.8328 (  2110 PWs)   bands (ev):

   -10.7288 -10.7288 -10.5297 -10.5297 -10.5195 -10.5195 -10.5077 -10.5077
   -10.4949 -10.4949   3.2417   3.2417   6.0120   6.0120

     highest occupied level (ev):    11.4182

!    total energy              =    -325.56067074 Ry
     estimated scf accuracy    <       0.00000001 Ry

     The total energy is the sum of the following terms:
     one-electron contribution =    -107.29325218 Ry
     hartree contribution      =      74.46838537 Ry
     xc contribution           =     -95.22050069 Ry
     ewald contribution        =    -197.51530324 Ry

     convergence has been achieved in   5 iterations

     Writing all to output data dir ./beta-sn-scf/betatin.save/ :
     XML data file, charge density, pseudopotentials, collected wavefunctions

     init_run     :      0.37s CPU      0.42s WALL (       1 calls)
     electrons    :      0.18s CPU      0.23s WALL (       1 calls)

     Called by init_run:
     wfcinit      :      0.01s CPU      0.02s WALL (       1 calls)
     potinit      :      0.02s CPU      0.03s WALL (       1 calls)
     hinit0       :      0.32s CPU      0.33s WALL (       1 calls)

     Called by electrons:
     c_bands      :      0.11s CPU      0.13s WALL (       6 calls)
     sum_band     :      0.03s CPU      0.04s WALL (       6 calls)
     v_of_rho     :      0.02s CPU      0.03s WALL (       6 calls)
     newd         :      0.00s CPU      0.01s WALL (       6 calls)
     mix_rho      :      0.00s CPU      0.00s WALL (       6 calls)

     Called by c_bands:
     init_us_2    :      0.00s CPU      0.00s WALL (      26 calls)
     cegterg      :      0.10s CPU      0.11s WALL (      12 calls)

     Called by *egterg:
     cdiaghg      :      0.02s CPU      0.02s WALL (      51 calls)
     h_psi        :      0.08s CPU      0.10s WALL (      55 calls)
     s_psi        :      0.00s CPU      0.00s WALL (      55 calls)
     g_psi        :      0.00s CPU      0.00s WALL (      41 calls)

     Called by h_psi:
     h_psi:calbec :      0.00s CPU      0.01s WALL (      55 calls)
     vloc_psi     :      0.07s CPU      0.09s WALL (      55 calls)
     add_vuspsi   :      0.00s CPU      0.00s WALL (      55 calls)

     General routines
     calbec       :      0.01s CPU      0.01s WALL (      67 calls)
     fft          :      0.30s CPU      0.31s WALL (      67 calls)
     ffts         :      0.00s CPU      0.00s WALL (       6 calls)
     fftw         :      0.08s CPU      0.10s WALL (    1098 calls)

     Parallel routines

     PWSCF        :      0.75s CPU      1.03s WALL


   This run was terminated on:  16: 8:50   5Feb2026            

=------------------------------------------------------------------------------=
   JOB DONE.
=------------------------------------------------------------------------------=
