
     Program PWSCF v.7.3.1 starts on  5Feb2026 at 16: 6:36 

     This program is part of the open-source Quantum ESPRESSO suite
     for quantum simulation of materials; please cite
         "P. Giannozzi et al., J. Phys.:Condens. Matter 21 395502 (2009);
         "P. Giannozzi et al., J. Phys.:Condens. Matter 29 465901 (2017);
         "P. Giannozzi et al., J. Chem. Phys. 152 154105 (2020);
          URL http://www.quantum-espresso.org", 
     in publications or presentations arising from this work. More details at
     http://www.quantum-espresso.org/quote

     Parallel version (MPI), running on   128 processors

     MPI processes distributed on     1 nodes
     241354 MiB available memory on the printing compute node when the environment starts

     Waiting for input...
     Reading input from standard input

     Current dimensions of program PWSCF are:
     Max number of different atomic species (ntypx) = 10
     Max number of k-points (npk) =  40000
     Max angular momentum in pseudopotentials (lmaxx) =  4

     K-points division:     npool     =       8
     R & G space division:  proc/nbgrp/npool/nimage =      16
     Subspace diagonalization in iterative solution of the eigenvalue problem:
     a serial algorithm will be used


     Parallelization info
     --------------------
     sticks:   dense  smooth     PW     G-vecs:    dense   smooth      PW
     Min          47      47     17                  639      639     139
     Max          48      48     18                  641      641     141
     Sum         767     767    283                10251    10251    2239

     Using Slab Decomposition



     bravais-lattice index     =            7
     lattice parameter (alat)  =      11.0200  a.u.
     unit-cell volume          =     365.0809 (a.u.)^3
     number of atoms/cell      =            2
     number of atomic types    =            1
     number of electrons       =        28.00
     number of Kohn-Sham states=           14
     kinetic-energy cutoff     =      35.0000  Ry
     charge density cutoff     =     140.0000  Ry
     scf convergence threshold =      1.0E-07
     mixing beta               =       0.7000
     number of iterations used =            8  plain     mixing
     Exchange-correlation=  SLA  PW   GGX  GGC
                           (   1   4   2   2   0   0   0)

     celldm(1)=  11.020000  celldm(2)=   0.000000  celldm(3)=   0.545600
     celldm(4)=   0.000000  celldm(5)=   0.000000  celldm(6)=   0.000000

     crystal axes: (cart. coord. in units of alat)
               a(1) = (   0.500000  -0.500000   0.272800 )  
               a(2) = (   0.500000   0.500000   0.272800 )  
               a(3) = (  -0.500000  -0.500000   0.272800 )  

     reciprocal axes: (cart. coord. in units 2 pi/alat)
               b(1) = (  1.000000 -1.000000  0.000000 )  
               b(2) = (  0.000000  1.000000  1.832845 )  
               b(3) = ( -1.000000  0.000000  1.832845 )  


     PseudoPot. # 1 for Sn read from file:
     ./Sn.pw91-n-van.UPF
     MD5 check sum: a38d2a872edd1a4efd76c0a1a38f7031
     Pseudo is Ultrasoft + core correction, Zval = 14.0
     Generated by new atomic code, or converted to UPF format
     Using radial grid of  891 points,  6 beta functions with: 
                l(1) =   0
                l(2) =   0
                l(3) =   1
                l(4) =   1
                l(5) =   2
                l(6) =   2
     Q(r) pseudized with  8 coefficients,  rinner =    1.100   1.100   1.100
                                                       1.100   1.100

     atomic species   valence    mass     pseudopotential
     Sn               14.00   118.70000     Sn( 1.00)

     16 Sym. Ops., with inversion, found (12 have fractional translation)



   Cartesian axes

     site n.     atom                  positions (alat units)
         1        Sn     tau(   1) = (   0.0000000  -0.2500000   0.0682000  )
         2        Sn     tau(   2) = (   0.0000000   0.2500000  -0.0682000  )

     number of k points=    13
                       cart. coord. in units 2pi/alat
        k(    1) = (   0.0000000   0.0000000   0.0000000), wk =   0.0312500
        k(    2) = (  -0.2500000   0.0000000   0.4582111), wk =   0.2500000
        k(    3) = (   0.5000000   0.0000000  -0.9164223), wk =   0.1250000
        k(    4) = (  -0.2500000   0.2500000   0.9164223), wk =   0.2500000
        k(    5) = (   0.5000000   0.2500000  -0.4582111), wk =   0.5000000
        k(    6) = (   0.2500000   0.2500000   0.0000000), wk =   0.1250000
        k(    7) = (   0.5000000  -0.5000000  -1.8328446), wk =   0.0625000
        k(    8) = (   0.0000000   0.0000000   0.9164223), wk =   0.0625000
        k(    9) = (   0.7500000   0.0000000  -0.4582111), wk =   0.2500000
        k(   10) = (   0.5000000   0.0000000   0.0000000), wk =   0.1250000
        k(   11) = (   0.7500000  -0.7500000  -1.8328446), wk =   0.1250000
        k(   12) = (   0.5000000  -0.5000000  -0.9164223), wk =   0.0625000
        k(   13) = (   0.0000000   0.0000000  -1.8328446), wk =   0.0312500

     Dense  grid:    10251 G-vectors     FFT dimensions: (  32,  32,  32)

     Estimated max dynamical RAM per process >       1.69 MB

     Estimated total dynamical RAM >     198.81 MB

     Initial potential from superposition of free atoms

     starting charge      27.9964, renormalised to      28.0000
     Starting wfcs are   18 randomized atomic wfcs

     total cpu time spent up to now is        0.6 secs

     per-process dynamical memory:     9.1 Mb

     Self-consistent Calculation

     iteration #  1     ecut=    35.00 Ry     beta= 0.70
     Davidson diagonalization with overlap
     ethr =  1.00E-02,  avg # of iterations =  1.8

     Threshold (ethr) on eigenvalues was too large:
     Diagonalizing with lowered threshold

     Davidson diagonalization with overlap
     ethr =  2.48E-05,  avg # of iterations =  3.7

     total cpu time spent up to now is        0.7 secs

     total energy              =    -325.54944846 Ry
     estimated scf accuracy    <       0.00706119 Ry

     iteration #  2     ecut=    35.00 Ry     beta= 0.70
     Davidson diagonalization with overlap
     ethr =  2.52E-05,  avg # of iterations =  2.0

     total cpu time spent up to now is        0.7 secs

     total energy              =    -325.55042398 Ry
     estimated scf accuracy    <       0.00056588 Ry

     iteration #  3     ecut=    35.00 Ry     beta= 0.70
     Davidson diagonalization with overlap
     ethr =  2.02E-06,  avg # of iterations =  2.2

     total cpu time spent up to now is        0.7 secs

     total energy              =    -325.55048764 Ry
     estimated scf accuracy    <       0.00004146 Ry

     iteration #  4     ecut=    35.00 Ry     beta= 0.70
     Davidson diagonalization with overlap
     ethr =  1.48E-07,  avg # of iterations =  3.1

     total cpu time spent up to now is        0.7 secs

     total energy              =    -325.55049479 Ry
     estimated scf accuracy    <       0.00000070 Ry

     iteration #  5     ecut=    35.00 Ry     beta= 0.70
     Davidson diagonalization with overlap
     ethr =  2.50E-09,  avg # of iterations =  3.2

     total cpu time spent up to now is        0.7 secs

     End of self-consistent calculation

          k = 0.0000 0.0000 0.0000 (  1277 PWs)   bands (ev):

   -10.7965 -10.7110 -10.6656 -10.6551 -10.5056 -10.5056 -10.4936 -10.4936
   -10.4005 -10.2897  -0.3482   7.1582   8.8400   8.8400

          k =-0.2500 0.0000 0.4582 (  1280 PWs)   bands (ev):

   -10.7597 -10.6284 -10.6252 -10.5840 -10.5613 -10.5197 -10.5114 -10.4882
   -10.4216 -10.3240   0.8900   6.5815   9.0446  11.2831

          k = 0.5000 0.0000-0.9164 (  1278 PWs)   bands (ev):

   -10.7202 -10.6478 -10.6306 -10.5912 -10.5569 -10.5551 -10.4544 -10.4075
   -10.4039 -10.3569   3.8514   5.3948   8.4861   9.1149

          k =-0.2500 0.2500 0.9164 (  1276 PWs)   bands (ev):

   -10.7334 -10.6445 -10.6011 -10.5832 -10.5819 -10.5315 -10.4722 -10.4519
   -10.3757 -10.3484   3.7370   6.0490   7.1238   9.1089

          k = 0.5000 0.2500-0.4582 (  1279 PWs)   bands (ev):

   -10.7021 -10.6418 -10.6376 -10.5840 -10.5658 -10.5090 -10.4744 -10.4673
   -10.4504 -10.3861   2.0023   4.1395   9.3956  10.6288

          k = 0.2500 0.2500 0.0000 (  1269 PWs)   bands (ev):

   -10.7450 -10.7179 -10.6824 -10.6237 -10.5319 -10.4838 -10.4829 -10.4745
   -10.4298 -10.3377   0.2164   4.5862   9.5068  10.5373

          k = 0.5000-0.5000-1.8328 (  1286 PWs)   bands (ev):

   -10.7147 -10.7147 -10.6272 -10.6272 -10.5311 -10.5311 -10.4597 -10.4597
   -10.4220 -10.4220   1.8994   1.8994  11.4191  11.4191

          k = 0.0000 0.0000 0.9164 (  1290 PWs)   bands (ev):

   -10.7257 -10.6162 -10.6162 -10.5966 -10.5516 -10.5516 -10.5275 -10.4326
   -10.3786 -10.3331   3.2939   7.1408   7.9732   9.4596

          k = 0.7500 0.0000-0.4582 (  1279 PWs)   bands (ev):

   -10.6893 -10.6460 -10.5830 -10.5730 -10.5388 -10.5224 -10.5113 -10.4740
   -10.4681 -10.4122   3.0212   4.3579   7.2627   8.4576

          k = 0.5000 0.0000 0.0000 (  1272 PWs)   bands (ev):

   -10.7310 -10.7001 -10.6886 -10.5921 -10.5093 -10.5014 -10.4971 -10.4544
   -10.4509 -10.3830   0.7789   4.3525   7.0807  10.7930

          k = 0.7500-0.7500-1.8328 (  1284 PWs)   bands (ev):

   -10.7216 -10.7216 -10.5888 -10.5888 -10.5233 -10.5233 -10.4745 -10.4745
   -10.4460 -10.4460   2.4037   2.4037   7.9921   7.9921

          k = 0.5000-0.5000-0.9164 (  1268 PWs)   bands (ev):

   -10.6972 -10.6972 -10.6254 -10.6254 -10.5174 -10.5174 -10.4236 -10.4236
   -10.3962 -10.3962   4.8037   4.8037   7.2821   7.2821

          k = 0.0000 0.0000-1.8328 (  1290 PWs)   bands (ev):

   -10.7242 -10.7242 -10.5250 -10.5250 -10.5131 -10.5131 -10.5024 -10.5024
   -10.4902 -10.4902   3.2411   3.2411   6.0128   6.0128

     highest occupied level (ev):    11.4191

!    total energy              =    -325.55049502 Ry
     estimated scf accuracy    <       0.00000009 Ry

     The total energy is the sum of the following terms:
     one-electron contribution =    -107.27931803 Ry
     hartree contribution      =      74.46671704 Ry
     xc contribution           =     -95.22259081 Ry
     ewald contribution        =    -197.51530322 Ry

     convergence has been achieved in   5 iterations

     Writing all to output data dir ./beta-sn-scf/betatin.save/ :
     XML data file, charge density, pseudopotentials, collected wavefunctions

     init_run     :      0.22s CPU      0.28s WALL (       1 calls)
     electrons    :      0.12s CPU      0.16s WALL (       1 calls)

     Called by init_run:
     wfcinit      :      0.02s CPU      0.03s WALL (       1 calls)
     potinit      :      0.01s CPU      0.02s WALL (       1 calls)
     hinit0       :      0.17s CPU      0.19s WALL (       1 calls)

     Called by electrons:
     c_bands      :      0.06s CPU      0.09s WALL (       6 calls)
     sum_band     :      0.02s CPU      0.03s WALL (       6 calls)
     v_of_rho     :      0.02s CPU      0.02s WALL (       6 calls)
     newd         :      0.00s CPU      0.01s WALL (       6 calls)
     mix_rho      :      0.00s CPU      0.00s WALL (       6 calls)

     Called by c_bands:
     init_us_2    :      0.00s CPU      0.00s WALL (      26 calls)
     cegterg      :      0.05s CPU      0.07s WALL (      12 calls)

     Called by *egterg:
     cdiaghg      :      0.01s CPU      0.02s WALL (      49 calls)
     h_psi        :      0.05s CPU      0.07s WALL (      53 calls)
     s_psi        :      0.00s CPU      0.00s WALL (      53 calls)
     g_psi        :      0.00s CPU      0.00s WALL (      39 calls)

     Called by h_psi:
     h_psi:calbec :      0.00s CPU      0.01s WALL (      53 calls)
     vloc_psi     :      0.05s CPU      0.07s WALL (      53 calls)
     add_vuspsi   :      0.00s CPU      0.00s WALL (      53 calls)

     General routines
     calbec       :      0.00s CPU      0.01s WALL (      65 calls)
     fft          :      0.15s CPU      0.16s WALL (      67 calls)
     ffts         :      0.00s CPU      0.00s WALL (       6 calls)
     fftw         :      0.05s CPU      0.07s WALL (    1080 calls)

     Parallel routines

     PWSCF        :      0.58s CPU      0.85s WALL


   This run was terminated on:  16: 6:37   5Feb2026            

=------------------------------------------------------------------------------=
   JOB DONE.
=------------------------------------------------------------------------------=
