
     Program PWSCF v.7.3.1 starts on  5Feb2026 at 16:14:58 

     This program is part of the open-source Quantum ESPRESSO suite
     for quantum simulation of materials; please cite
         "P. Giannozzi et al., J. Phys.:Condens. Matter 21 395502 (2009);
         "P. Giannozzi et al., J. Phys.:Condens. Matter 29 465901 (2017);
         "P. Giannozzi et al., J. Chem. Phys. 152 154105 (2020);
          URL http://www.quantum-espresso.org", 
     in publications or presentations arising from this work. More details at
     http://www.quantum-espresso.org/quote

     Parallel version (MPI), running on   128 processors

     MPI processes distributed on     1 nodes
     241415 MiB available memory on the printing compute node when the environment starts

     Waiting for input...
     Reading input from standard input

     Current dimensions of program PWSCF are:
     Max number of different atomic species (ntypx) = 10
     Max number of k-points (npk) =  40000
     Max angular momentum in pseudopotentials (lmaxx) =  4

     K-points division:     npool     =       8
     R & G space division:  proc/nbgrp/npool/nimage =      16
     Subspace diagonalization in iterative solution of the eigenvalue problem:
     a serial algorithm will be used


     Parallelization info
     --------------------
     sticks:   dense  smooth     PW     G-vecs:    dense   smooth      PW
     Min         117     117     37                 2418     2418     434
     Max         118     118     38                 2420     2420     435
     Sum        1873    1873    595                38705    38705    6949

     Using Slab Decomposition



     bravais-lattice index     =            7
     lattice parameter (alat)  =      11.0200  a.u.
     unit-cell volume          =     365.0809 (a.u.)^3
     number of atoms/cell      =            2
     number of atomic types    =            1
     number of electrons       =        28.00
     number of Kohn-Sham states=           14
     kinetic-energy cutoff     =      85.0000  Ry
     charge density cutoff     =     340.0000  Ry
     scf convergence threshold =      1.0E-07
     mixing beta               =       0.7000
     number of iterations used =            8  plain     mixing
     Exchange-correlation=  SLA  PW   GGX  GGC
                           (   1   4   2   2   0   0   0)

     celldm(1)=  11.020000  celldm(2)=   0.000000  celldm(3)=   0.545600
     celldm(4)=   0.000000  celldm(5)=   0.000000  celldm(6)=   0.000000

     crystal axes: (cart. coord. in units of alat)
               a(1) = (   0.500000  -0.500000   0.272800 )  
               a(2) = (   0.500000   0.500000   0.272800 )  
               a(3) = (  -0.500000  -0.500000   0.272800 )  

     reciprocal axes: (cart. coord. in units 2 pi/alat)
               b(1) = (  1.000000 -1.000000  0.000000 )  
               b(2) = (  0.000000  1.000000  1.832845 )  
               b(3) = ( -1.000000  0.000000  1.832845 )  


     PseudoPot. # 1 for Sn read from file:
     ./Sn.pw91-n-van.UPF
     MD5 check sum: a38d2a872edd1a4efd76c0a1a38f7031
     Pseudo is Ultrasoft + core correction, Zval = 14.0
     Generated by new atomic code, or converted to UPF format
     Using radial grid of  891 points,  6 beta functions with: 
                l(1) =   0
                l(2) =   0
                l(3) =   1
                l(4) =   1
                l(5) =   2
                l(6) =   2
     Q(r) pseudized with  8 coefficients,  rinner =    1.100   1.100   1.100
                                                       1.100   1.100

     atomic species   valence    mass     pseudopotential
     Sn               14.00   118.70000     Sn( 1.00)

     16 Sym. Ops., with inversion, found (12 have fractional translation)



   Cartesian axes

     site n.     atom                  positions (alat units)
         1        Sn     tau(   1) = (   0.0000000  -0.2500000   0.0682000  )
         2        Sn     tau(   2) = (   0.0000000   0.2500000  -0.0682000  )

     number of k points=    13
                       cart. coord. in units 2pi/alat
        k(    1) = (   0.0000000   0.0000000   0.0000000), wk =   0.0312500
        k(    2) = (  -0.2500000   0.0000000   0.4582111), wk =   0.2500000
        k(    3) = (   0.5000000   0.0000000  -0.9164223), wk =   0.1250000
        k(    4) = (  -0.2500000   0.2500000   0.9164223), wk =   0.2500000
        k(    5) = (   0.5000000   0.2500000  -0.4582111), wk =   0.5000000
        k(    6) = (   0.2500000   0.2500000   0.0000000), wk =   0.1250000
        k(    7) = (   0.5000000  -0.5000000  -1.8328446), wk =   0.0625000
        k(    8) = (   0.0000000   0.0000000   0.9164223), wk =   0.0625000
        k(    9) = (   0.7500000   0.0000000  -0.4582111), wk =   0.2500000
        k(   10) = (   0.5000000   0.0000000   0.0000000), wk =   0.1250000
        k(   11) = (   0.7500000  -0.7500000  -1.8328446), wk =   0.1250000
        k(   12) = (   0.5000000  -0.5000000  -0.9164223), wk =   0.0625000
        k(   13) = (   0.0000000   0.0000000  -1.8328446), wk =   0.0312500

     Dense  grid:    38705 G-vectors     FFT dimensions: (  50,  50,  50)

     Estimated max dynamical RAM per process >       4.43 MB

     Estimated total dynamical RAM >     500.79 MB

     Initial potential from superposition of free atoms

     starting charge      27.9964, renormalised to      28.0000
     Starting wfcs are   18 randomized atomic wfcs

     total cpu time spent up to now is        0.6 secs

     per-process dynamical memory:    12.3 Mb

     Self-consistent Calculation

     iteration #  1     ecut=    85.00 Ry     beta= 0.70
     Davidson diagonalization with overlap
     ethr =  1.00E-02,  avg # of iterations =  1.8

     Threshold (ethr) on eigenvalues was too large:
     Diagonalizing with lowered threshold

     Davidson diagonalization with overlap
     ethr =  2.40E-05,  avg # of iterations =  3.8

     total cpu time spent up to now is        0.8 secs

     total energy              =    -325.57014300 Ry
     estimated scf accuracy    <       0.00691799 Ry

     iteration #  2     ecut=    85.00 Ry     beta= 0.70
     Davidson diagonalization with overlap
     ethr =  2.47E-05,  avg # of iterations =  2.0

     total cpu time spent up to now is        0.8 secs

     total energy              =    -325.57110969 Ry
     estimated scf accuracy    <       0.00056175 Ry

     iteration #  3     ecut=    85.00 Ry     beta= 0.70
     Davidson diagonalization with overlap
     ethr =  2.01E-06,  avg # of iterations =  2.2

     total cpu time spent up to now is        0.9 secs

     total energy              =    -325.57117314 Ry
     estimated scf accuracy    <       0.00004341 Ry

     iteration #  4     ecut=    85.00 Ry     beta= 0.70
     Davidson diagonalization with overlap
     ethr =  1.55E-07,  avg # of iterations =  3.2

     total cpu time spent up to now is        0.9 secs

     total energy              =    -325.57117847 Ry
     estimated scf accuracy    <       0.00000035 Ry

     iteration #  5     ecut=    85.00 Ry     beta= 0.70
     Davidson diagonalization with overlap
     ethr =  1.25E-09,  avg # of iterations =  3.5

     total cpu time spent up to now is        1.0 secs

     End of self-consistent calculation

          k = 0.0000 0.0000 0.0000 (  4805 PWs)   bands (ev):

   -10.8037 -10.7209 -10.6778 -10.6655 -10.5159 -10.5159 -10.5048 -10.5048
   -10.4129 -10.2999  -0.3471   7.1612   8.8399   8.8399

          k =-0.2500 0.0000 0.4582 (  4817 PWs)   bands (ev):

   -10.7678 -10.6404 -10.6352 -10.5941 -10.5718 -10.5304 -10.5219 -10.4988
   -10.4340 -10.3344   0.8912   6.5839   9.0443  11.2834

          k = 0.5000 0.0000-0.9164 (  4848 PWs)   bands (ev):

   -10.7285 -10.6582 -10.6416 -10.6019 -10.5682 -10.5649 -10.4665 -10.4186
   -10.4149 -10.3681   3.8533   5.3958   8.4876   9.1145

          k =-0.2500 0.2500 0.9164 (  4834 PWs)   bands (ev):

   -10.7424 -10.6549 -10.6116 -10.5946 -10.5927 -10.5420 -10.4830 -10.4640
   -10.3870 -10.3591   3.7387   6.0510   7.1236   9.1086

          k = 0.5000 0.2500-0.4582 (  4834 PWs)   bands (ev):

   -10.7111 -10.6517 -10.6480 -10.5942 -10.5772 -10.5198 -10.4863 -10.4784
   -10.4611 -10.3964   2.0035   4.1411   9.3958  10.6285

          k = 0.2500 0.2500 0.0000 (  4833 PWs)   bands (ev):

   -10.7537 -10.7278 -10.6924 -10.6360 -10.5426 -10.4951 -10.4935 -10.4854
   -10.4424 -10.3486   0.2176   4.5878   9.5066  10.5381

          k = 0.5000-0.5000-1.8328 (  4850 PWs)   bands (ev):

   -10.7242 -10.7242 -10.6363 -10.6363 -10.5428 -10.5428 -10.4712 -10.4712
   -10.4318 -10.4318   1.9007   1.9007  11.4187  11.4187

          k = 0.0000 0.0000 0.9164 (  4801 PWs)   bands (ev):

   -10.7338 -10.6265 -10.6265 -10.6071 -10.5619 -10.5619 -10.5377 -10.4447
   -10.3893 -10.3433   3.2955   7.1432   7.9734   9.4593

          k = 0.7500 0.0000-0.4582 (  4836 PWs)   bands (ev):

   -10.6982 -10.6559 -10.5934 -10.5844 -10.5499 -10.5330 -10.5220 -10.4856
   -10.4788 -10.4225   3.0227   4.3598   7.2622   8.4577

          k = 0.5000 0.0000 0.0000 (  4826 PWs)   bands (ev):

   -10.7396 -10.7100 -10.6980 -10.6044 -10.5198 -10.5122 -10.5083 -10.4653
   -10.4633 -10.3936   0.7801   4.3543   7.0803  10.7930

          k = 0.7500-0.7500-1.8328 (  4816 PWs)   bands (ev):

   -10.7306 -10.7306 -10.5984 -10.5984 -10.5350 -10.5350 -10.4854 -10.4854
   -10.4564 -10.4564   2.4050   2.4050   7.9921   7.9921

          k = 0.5000-0.5000-0.9164 (  4828 PWs)   bands (ev):

   -10.7068 -10.7068 -10.6364 -10.6364 -10.5289 -10.5289 -10.4348 -10.4348
   -10.4077 -10.4077   4.8058   4.8058   7.2816   7.2816

          k = 0.0000 0.0000-1.8328 (  4808 PWs)   bands (ev):

   -10.7334 -10.7334 -10.5345 -10.5345 -10.5247 -10.5247 -10.5130 -10.5130
   -10.5000 -10.5000   3.2427   3.2427   6.0125   6.0125

     highest occupied level (ev):    11.4187

!    total energy              =    -325.57117866 Ry
     estimated scf accuracy    <       0.00000001 Ry

     The total energy is the sum of the following terms:
     one-electron contribution =    -107.30614808 Ry
     hartree contribution      =      74.47164833 Ry
     xc contribution           =     -95.22137571 Ry
     ewald contribution        =    -197.51530320 Ry

     convergence has been achieved in   5 iterations

     Writing all to output data dir ./beta-sn-scf/betatin.save/ :
     XML data file, charge density, pseudopotentials, collected wavefunctions

     init_run     :      0.29s CPU      0.33s WALL (       1 calls)
     electrons    :      0.33s CPU      0.39s WALL (       1 calls)

     Called by init_run:
     wfcinit      :      0.02s CPU      0.03s WALL (       1 calls)
     potinit      :      0.03s CPU      0.03s WALL (       1 calls)
     hinit0       :      0.20s CPU      0.22s WALL (       1 calls)

     Called by electrons:
     c_bands      :      0.20s CPU      0.22s WALL (       6 calls)
     sum_band     :      0.06s CPU      0.07s WALL (       6 calls)
     v_of_rho     :      0.06s CPU      0.06s WALL (       6 calls)
     newd         :      0.02s CPU      0.02s WALL (       6 calls)
     mix_rho      :      0.00s CPU      0.01s WALL (       6 calls)

     Called by c_bands:
     init_us_2    :      0.00s CPU      0.00s WALL (      26 calls)
     cegterg      :      0.17s CPU      0.19s WALL (      12 calls)

     Called by *egterg:
     cdiaghg      :      0.01s CPU      0.02s WALL (      49 calls)
     h_psi        :      0.16s CPU      0.18s WALL (      53 calls)
     s_psi        :      0.00s CPU      0.00s WALL (      53 calls)
     g_psi        :      0.00s CPU      0.00s WALL (      39 calls)

     Called by h_psi:
     h_psi:calbec :      0.01s CPU      0.01s WALL (      53 calls)
     vloc_psi     :      0.14s CPU      0.17s WALL (      53 calls)
     add_vuspsi   :      0.00s CPU      0.00s WALL (      53 calls)

     General routines
     calbec       :      0.01s CPU      0.01s WALL (      65 calls)
     fft          :      0.20s CPU      0.20s WALL (      67 calls)
     ffts         :      0.00s CPU      0.00s WALL (       6 calls)
     fftw         :      0.16s CPU      0.18s WALL (    1090 calls)

     Parallel routines

     PWSCF        :      0.86s CPU      1.09s WALL


   This run was terminated on:  16:14:59   5Feb2026            

=------------------------------------------------------------------------------=
   JOB DONE.
=------------------------------------------------------------------------------=
