
     Program PWSCF v.7.3.1 starts on  5Feb2026 at 16:11:43 

     This program is part of the open-source Quantum ESPRESSO suite
     for quantum simulation of materials; please cite
         "P. Giannozzi et al., J. Phys.:Condens. Matter 21 395502 (2009);
         "P. Giannozzi et al., J. Phys.:Condens. Matter 29 465901 (2017);
         "P. Giannozzi et al., J. Chem. Phys. 152 154105 (2020);
          URL http://www.quantum-espresso.org", 
     in publications or presentations arising from this work. More details at
     http://www.quantum-espresso.org/quote

     Parallel version (MPI), running on   128 processors

     MPI processes distributed on     1 nodes
     241355 MiB available memory on the printing compute node when the environment starts

     Waiting for input...
     Reading input from standard input

     Current dimensions of program PWSCF are:
     Max number of different atomic species (ntypx) = 10
     Max number of k-points (npk) =  40000
     Max angular momentum in pseudopotentials (lmaxx) =  4

     K-points division:     npool     =       8
     R & G space division:  proc/nbgrp/npool/nimage =      16
     Subspace diagonalization in iterative solution of the eigenvalue problem:
     a serial algorithm will be used


     Parallelization info
     --------------------
     sticks:   dense  smooth     PW     G-vecs:    dense   smooth      PW
     Min          91      91     30                 1689     1689     319
     Max          92      92     31                 1692     1692     321
     Sum        1469    1469    487                27047    27047    5117

     Using Slab Decomposition



     bravais-lattice index     =            7
     lattice parameter (alat)  =      11.0200  a.u.
     unit-cell volume          =     365.0809 (a.u.)^3
     number of atoms/cell      =            2
     number of atomic types    =            1
     number of electrons       =        28.00
     number of Kohn-Sham states=           14
     kinetic-energy cutoff     =      67.0000  Ry
     charge density cutoff     =     268.0000  Ry
     scf convergence threshold =      1.0E-07
     mixing beta               =       0.7000
     number of iterations used =            8  plain     mixing
     Exchange-correlation=  SLA  PW   GGX  GGC
                           (   1   4   2   2   0   0   0)

     celldm(1)=  11.020000  celldm(2)=   0.000000  celldm(3)=   0.545600
     celldm(4)=   0.000000  celldm(5)=   0.000000  celldm(6)=   0.000000

     crystal axes: (cart. coord. in units of alat)
               a(1) = (   0.500000  -0.500000   0.272800 )  
               a(2) = (   0.500000   0.500000   0.272800 )  
               a(3) = (  -0.500000  -0.500000   0.272800 )  

     reciprocal axes: (cart. coord. in units 2 pi/alat)
               b(1) = (  1.000000 -1.000000  0.000000 )  
               b(2) = (  0.000000  1.000000  1.832845 )  
               b(3) = ( -1.000000  0.000000  1.832845 )  


     PseudoPot. # 1 for Sn read from file:
     ./Sn.pw91-n-van.UPF
     MD5 check sum: a38d2a872edd1a4efd76c0a1a38f7031
     Pseudo is Ultrasoft + core correction, Zval = 14.0
     Generated by new atomic code, or converted to UPF format
     Using radial grid of  891 points,  6 beta functions with: 
                l(1) =   0
                l(2) =   0
                l(3) =   1
                l(4) =   1
                l(5) =   2
                l(6) =   2
     Q(r) pseudized with  8 coefficients,  rinner =    1.100   1.100   1.100
                                                       1.100   1.100

     atomic species   valence    mass     pseudopotential
     Sn               14.00   118.70000     Sn( 1.00)

     16 Sym. Ops., with inversion, found (12 have fractional translation)



   Cartesian axes

     site n.     atom                  positions (alat units)
         1        Sn     tau(   1) = (   0.0000000  -0.2500000   0.0682000  )
         2        Sn     tau(   2) = (   0.0000000   0.2500000  -0.0682000  )

     number of k points=    13
                       cart. coord. in units 2pi/alat
        k(    1) = (   0.0000000   0.0000000   0.0000000), wk =   0.0312500
        k(    2) = (  -0.2500000   0.0000000   0.4582111), wk =   0.2500000
        k(    3) = (   0.5000000   0.0000000  -0.9164223), wk =   0.1250000
        k(    4) = (  -0.2500000   0.2500000   0.9164223), wk =   0.2500000
        k(    5) = (   0.5000000   0.2500000  -0.4582111), wk =   0.5000000
        k(    6) = (   0.2500000   0.2500000   0.0000000), wk =   0.1250000
        k(    7) = (   0.5000000  -0.5000000  -1.8328446), wk =   0.0625000
        k(    8) = (   0.0000000   0.0000000   0.9164223), wk =   0.0625000
        k(    9) = (   0.7500000   0.0000000  -0.4582111), wk =   0.2500000
        k(   10) = (   0.5000000   0.0000000   0.0000000), wk =   0.1250000
        k(   11) = (   0.7500000  -0.7500000  -1.8328446), wk =   0.1250000
        k(   12) = (   0.5000000  -0.5000000  -0.9164223), wk =   0.0625000
        k(   13) = (   0.0000000   0.0000000  -1.8328446), wk =   0.0312500

     Dense  grid:    27047 G-vectors     FFT dimensions: (  48,  48,  48)

     Estimated max dynamical RAM per process >       3.37 MB

     Estimated total dynamical RAM >     385.29 MB

     Initial potential from superposition of free atoms

     starting charge      27.9964, renormalised to      28.0000
     Starting wfcs are   18 randomized atomic wfcs

     total cpu time spent up to now is        0.8 secs

     per-process dynamical memory:    11.0 Mb

     Self-consistent Calculation

     iteration #  1     ecut=    67.00 Ry     beta= 0.70
     Davidson diagonalization with overlap
     ethr =  1.00E-02,  avg # of iterations =  1.8

     Threshold (ethr) on eigenvalues was too large:
     Diagonalizing with lowered threshold

     Davidson diagonalization with overlap
     ethr =  2.42E-05,  avg # of iterations =  3.9

     total cpu time spent up to now is        0.9 secs

     total energy              =    -325.56852210 Ry
     estimated scf accuracy    <       0.00695111 Ry

     iteration #  2     ecut=    67.00 Ry     beta= 0.70
     Davidson diagonalization with overlap
     ethr =  2.48E-05,  avg # of iterations =  2.0

     total cpu time spent up to now is        1.0 secs

     total energy              =    -325.56949998 Ry
     estimated scf accuracy    <       0.00056435 Ry

     iteration #  3     ecut=    67.00 Ry     beta= 0.70
     Davidson diagonalization with overlap
     ethr =  2.02E-06,  avg # of iterations =  2.4

     total cpu time spent up to now is        1.0 secs

     total energy              =    -325.56956975 Ry
     estimated scf accuracy    <       0.00004451 Ry

     iteration #  4     ecut=    67.00 Ry     beta= 0.70
     Davidson diagonalization with overlap
     ethr =  1.59E-07,  avg # of iterations =  2.4

     total cpu time spent up to now is        1.0 secs

     total energy              =    -325.56957425 Ry
     estimated scf accuracy    <       0.00000021 Ry

     iteration #  5     ecut=    67.00 Ry     beta= 0.70
     Davidson diagonalization with overlap
     ethr =  7.54E-10,  avg # of iterations =  4.9

     total cpu time spent up to now is        1.1 secs

     End of self-consistent calculation

          k = 0.0000 0.0000 0.0000 (  3371 PWs)   bands (ev):

   -10.8030 -10.7204 -10.6767 -10.6653 -10.5150 -10.5150 -10.5040 -10.5040
   -10.4118 -10.2995  -0.3471   7.1613   8.8399   8.8399

          k =-0.2500 0.0000 0.4582 (  3375 PWs)   bands (ev):

   -10.7671 -10.6393 -10.6346 -10.5934 -10.5710 -10.5296 -10.5212 -10.4982
   -10.4329 -10.3341   0.8912   6.5840   9.0443  11.2834

          k = 0.5000 0.0000-0.9164 (  3382 PWs)   bands (ev):

   -10.7278 -10.6573 -10.6406 -10.6011 -10.5671 -10.5642 -10.4653 -10.4180
   -10.4143 -10.3676   3.8534   5.3958   8.4876   9.1145

          k =-0.2500 0.2500 0.9164 (  3381 PWs)   bands (ev):

   -10.7417 -10.6540 -10.6107 -10.5937 -10.5919 -10.5412 -10.4823 -10.4629
   -10.3864 -10.3585   3.7388   6.0511   7.1235   9.1086

          k = 0.5000 0.2500-0.4582 (  3381 PWs)   bands (ev):

   -10.7104 -10.6510 -10.6473 -10.5933 -10.5762 -10.5190 -10.4853 -10.4776
   -10.4604 -10.3959   2.0036   4.1411   9.3958  10.6285

          k = 0.2500 0.2500 0.0000 (  3378 PWs)   bands (ev):

   -10.7530 -10.7273 -10.6920 -10.6349 -10.5417 -10.4944 -10.4926 -10.4846
   -10.4413 -10.3481   0.2176   4.5879   9.5066  10.5381

          k = 0.5000-0.5000-1.8328 (  3364 PWs)   bands (ev):

   -10.7237 -10.7237 -10.6356 -10.6356 -10.5417 -10.5417 -10.4703 -10.4703
   -10.4310 -10.4310   1.9007   1.9007  11.4188  11.4188

          k = 0.0000 0.0000 0.9164 (  3412 PWs)   bands (ev):

   -10.7333 -10.6257 -10.6257 -10.6062 -10.5612 -10.5612 -10.5371 -10.4437
   -10.3888 -10.3430   3.2956   7.1432   7.9733   9.4593

          k = 0.7500 0.0000-0.4582 (  3381 PWs)   bands (ev):

   -10.6976 -10.6553 -10.5927 -10.5834 -10.5488 -10.5322 -10.5212 -10.4846
   -10.4782 -10.4219   3.0227   4.3598   7.2622   8.4578

          k = 0.5000 0.0000 0.0000 (  3388 PWs)   bands (ev):

   -10.7391 -10.7096 -10.6974 -10.6034 -10.5191 -10.5113 -10.5075 -10.4645
   -10.4623 -10.3931   0.7801   4.3544   7.0803  10.7931

          k = 0.7500-0.7500-1.8328 (  3368 PWs)   bands (ev):

   -10.7301 -10.7301 -10.5978 -10.5978 -10.5339 -10.5339 -10.4845 -10.4845
   -10.4557 -10.4557   2.4051   2.4051   7.9921   7.9921

          k = 0.5000-0.5000-0.9164 (  3404 PWs)   bands (ev):

   -10.7060 -10.7060 -10.6356 -10.6356 -10.5279 -10.5279 -10.4342 -10.4342
   -10.4071 -10.4071   4.8059   4.8059   7.2815   7.2815

          k = 0.0000 0.0000-1.8328 (  3420 PWs)   bands (ev):

   -10.7330 -10.7330 -10.5340 -10.5340 -10.5236 -10.5236 -10.5121 -10.5121
   -10.4994 -10.4994   3.2428   3.2428   6.0124   6.0124

     highest occupied level (ev):    11.4188

!    total energy              =    -325.56957453 Ry
     estimated scf accuracy    <          6.8E-09 Ry

     The total energy is the sum of the following terms:
     one-electron contribution =    -107.30374305 Ry
     hartree contribution      =      74.47057464 Ry
     xc contribution           =     -95.22110292 Ry
     ewald contribution        =    -197.51530320 Ry

     convergence has been achieved in   5 iterations

     Writing all to output data dir ./beta-sn-scf/betatin.save/ :
     XML data file, charge density, pseudopotentials, collected wavefunctions

     init_run     :      0.45s CPU      0.50s WALL (       1 calls)
     electrons    :      0.22s CPU      0.29s WALL (       1 calls)

     Called by init_run:
     wfcinit      :      0.02s CPU      0.03s WALL (       1 calls)
     potinit      :      0.02s CPU      0.04s WALL (       1 calls)
     hinit0       :      0.38s CPU      0.40s WALL (       1 calls)

     Called by electrons:
     c_bands      :      0.14s CPU      0.17s WALL (       6 calls)
     sum_band     :      0.04s CPU      0.05s WALL (       6 calls)
     v_of_rho     :      0.03s CPU      0.04s WALL (       6 calls)
     newd         :      0.01s CPU      0.01s WALL (       6 calls)
     mix_rho      :      0.00s CPU      0.00s WALL (       6 calls)

     Called by c_bands:
     init_us_2    :      0.00s CPU      0.00s WALL (      26 calls)
     cegterg      :      0.12s CPU      0.14s WALL (      12 calls)

     Called by *egterg:
     cdiaghg      :      0.02s CPU      0.02s WALL (      55 calls)
     h_psi        :      0.10s CPU      0.12s WALL (      59 calls)
     s_psi        :      0.00s CPU      0.00s WALL (      59 calls)
     g_psi        :      0.00s CPU      0.00s WALL (      45 calls)

     Called by h_psi:
     h_psi:calbec :      0.01s CPU      0.01s WALL (      59 calls)
     vloc_psi     :      0.09s CPU      0.11s WALL (      59 calls)
     add_vuspsi   :      0.00s CPU      0.00s WALL (      59 calls)

     General routines
     calbec       :      0.01s CPU      0.01s WALL (      71 calls)
     fft          :      0.37s CPU      0.37s WALL (      67 calls)
     ffts         :      0.00s CPU      0.00s WALL (       6 calls)
     fftw         :      0.09s CPU      0.12s WALL (    1118 calls)

     Parallel routines

     PWSCF        :      0.93s CPU      1.19s WALL


   This run was terminated on:  16:11:44   5Feb2026            

=------------------------------------------------------------------------------=
   JOB DONE.
=------------------------------------------------------------------------------=
