
     Program PWSCF v.7.3.1 starts on  5Feb2026 at 16: 8:34 

     This program is part of the open-source Quantum ESPRESSO suite
     for quantum simulation of materials; please cite
         "P. Giannozzi et al., J. Phys.:Condens. Matter 21 395502 (2009);
         "P. Giannozzi et al., J. Phys.:Condens. Matter 29 465901 (2017);
         "P. Giannozzi et al., J. Chem. Phys. 152 154105 (2020);
          URL http://www.quantum-espresso.org", 
     in publications or presentations arising from this work. More details at
     http://www.quantum-espresso.org/quote

     Parallel version (MPI), running on   128 processors

     MPI processes distributed on     1 nodes
     241320 MiB available memory on the printing compute node when the environment starts

     Waiting for input...
     Reading input from standard input

     Current dimensions of program PWSCF are:
     Max number of different atomic species (ntypx) = 10
     Max number of k-points (npk) =  40000
     Max angular momentum in pseudopotentials (lmaxx) =  4

     K-points division:     npool     =       8
     R & G space division:  proc/nbgrp/npool/nimage =      16
     Subspace diagonalization in iterative solution of the eigenvalue problem:
     a serial algorithm will be used


     Parallelization info
     --------------------
     sticks:   dense  smooth     PW     G-vecs:    dense   smooth      PW
     Min          64      64     22                  993      993     200
     Max          65      65     23                  995      995     202
     Sum        1039    1039    355                15905    15905    3215

     Using Slab Decomposition



     bravais-lattice index     =            7
     lattice parameter (alat)  =      11.0200  a.u.
     unit-cell volume          =     365.0809 (a.u.)^3
     number of atoms/cell      =            2
     number of atomic types    =            1
     number of electrons       =        28.00
     number of Kohn-Sham states=           14
     kinetic-energy cutoff     =      47.0000  Ry
     charge density cutoff     =     188.0000  Ry
     scf convergence threshold =      1.0E-07
     mixing beta               =       0.7000
     number of iterations used =            8  plain     mixing
     Exchange-correlation=  SLA  PW   GGX  GGC
                           (   1   4   2   2   0   0   0)

     celldm(1)=  11.020000  celldm(2)=   0.000000  celldm(3)=   0.545600
     celldm(4)=   0.000000  celldm(5)=   0.000000  celldm(6)=   0.000000

     crystal axes: (cart. coord. in units of alat)
               a(1) = (   0.500000  -0.500000   0.272800 )  
               a(2) = (   0.500000   0.500000   0.272800 )  
               a(3) = (  -0.500000  -0.500000   0.272800 )  

     reciprocal axes: (cart. coord. in units 2 pi/alat)
               b(1) = (  1.000000 -1.000000  0.000000 )  
               b(2) = (  0.000000  1.000000  1.832845 )  
               b(3) = ( -1.000000  0.000000  1.832845 )  


     PseudoPot. # 1 for Sn read from file:
     ./Sn.pw91-n-van.UPF
     MD5 check sum: a38d2a872edd1a4efd76c0a1a38f7031
     Pseudo is Ultrasoft + core correction, Zval = 14.0
     Generated by new atomic code, or converted to UPF format
     Using radial grid of  891 points,  6 beta functions with: 
                l(1) =   0
                l(2) =   0
                l(3) =   1
                l(4) =   1
                l(5) =   2
                l(6) =   2
     Q(r) pseudized with  8 coefficients,  rinner =    1.100   1.100   1.100
                                                       1.100   1.100

     atomic species   valence    mass     pseudopotential
     Sn               14.00   118.70000     Sn( 1.00)

     16 Sym. Ops., with inversion, found (12 have fractional translation)



   Cartesian axes

     site n.     atom                  positions (alat units)
         1        Sn     tau(   1) = (   0.0000000  -0.2500000   0.0682000  )
         2        Sn     tau(   2) = (   0.0000000   0.2500000  -0.0682000  )

     number of k points=    13
                       cart. coord. in units 2pi/alat
        k(    1) = (   0.0000000   0.0000000   0.0000000), wk =   0.0312500
        k(    2) = (  -0.2500000   0.0000000   0.4582111), wk =   0.2500000
        k(    3) = (   0.5000000   0.0000000  -0.9164223), wk =   0.1250000
        k(    4) = (  -0.2500000   0.2500000   0.9164223), wk =   0.2500000
        k(    5) = (   0.5000000   0.2500000  -0.4582111), wk =   0.5000000
        k(    6) = (   0.2500000   0.2500000   0.0000000), wk =   0.1250000
        k(    7) = (   0.5000000  -0.5000000  -1.8328446), wk =   0.0625000
        k(    8) = (   0.0000000   0.0000000   0.9164223), wk =   0.0625000
        k(    9) = (   0.7500000   0.0000000  -0.4582111), wk =   0.2500000
        k(   10) = (   0.5000000   0.0000000   0.0000000), wk =   0.1250000
        k(   11) = (   0.7500000  -0.7500000  -1.8328446), wk =   0.1250000
        k(   12) = (   0.5000000  -0.5000000  -0.9164223), wk =   0.0625000
        k(   13) = (   0.0000000   0.0000000  -1.8328446), wk =   0.0312500

     Dense  grid:    15905 G-vectors     FFT dimensions: (  40,  40,  40)

     Estimated max dynamical RAM per process >       2.36 MB

     Estimated total dynamical RAM >     275.02 MB

     Initial potential from superposition of free atoms

     starting charge      27.9964, renormalised to      28.0000
     Starting wfcs are   18 randomized atomic wfcs

     total cpu time spent up to now is        0.7 secs

     per-process dynamical memory:     9.9 Mb

     Self-consistent Calculation

     iteration #  1     ecut=    47.00 Ry     beta= 0.70
     Davidson diagonalization with overlap
     ethr =  1.00E-02,  avg # of iterations =  1.8

     Threshold (ethr) on eigenvalues was too large:
     Diagonalizing with lowered threshold

     Davidson diagonalization with overlap
     ethr =  2.45E-05,  avg # of iterations =  4.0

     negative rho (up, down):  3.669E-05 0.000E+00

     total cpu time spent up to now is        0.8 secs

     total energy              =    -325.55940555 Ry
     estimated scf accuracy    <       0.00701065 Ry

     iteration #  2     ecut=    47.00 Ry     beta= 0.70
     Davidson diagonalization with overlap
     ethr =  2.50E-05,  avg # of iterations =  2.0

     negative rho (up, down):  4.414E-05 0.000E+00

     total cpu time spent up to now is        0.8 secs

     total energy              =    -325.56043148 Ry
     estimated scf accuracy    <       0.00056617 Ry

     iteration #  3     ecut=    47.00 Ry     beta= 0.70
     Davidson diagonalization with overlap
     ethr =  2.02E-06,  avg # of iterations =  2.2

     negative rho (up, down):  5.037E-05 0.000E+00

     total cpu time spent up to now is        0.9 secs

     total energy              =    -325.56049928 Ry
     estimated scf accuracy    <       0.00004377 Ry

     iteration #  4     ecut=    47.00 Ry     beta= 0.70
     Davidson diagonalization with overlap
     ethr =  1.56E-07,  avg # of iterations =  3.0

     negative rho (up, down):  5.041E-05 0.000E+00

     total cpu time spent up to now is        0.9 secs

     total energy              =    -325.56050568 Ry
     estimated scf accuracy    <       0.00000050 Ry

     iteration #  5     ecut=    47.00 Ry     beta= 0.70
     Davidson diagonalization with overlap
     ethr =  1.78E-09,  avg # of iterations =  3.5

     negative rho (up, down):  5.040E-05 0.000E+00

     total cpu time spent up to now is        0.9 secs

     End of self-consistent calculation

          k = 0.0000 0.0000 0.0000 (  1983 PWs)   bands (ev):

   -10.7993 -10.7163 -10.6729 -10.6609 -10.5108 -10.5108 -10.4997 -10.4997
   -10.4081 -10.2952  -0.3479   7.1596   8.8393   8.8393

          k =-0.2500 0.0000 0.4582 (  1986 PWs)   bands (ev):

   -10.7633 -10.6355 -10.6305 -10.5892 -10.5667 -10.5254 -10.5169 -10.4939
   -10.4291 -10.3297   0.8903   6.5825   9.0438  11.2826

          k = 0.5000 0.0000-0.9164 (  1986 PWs)   bands (ev):

   -10.7239 -10.6532 -10.6365 -10.5971 -10.5631 -10.5599 -10.4614 -10.4138
   -10.4101 -10.3634   3.8521   5.3950   8.4865   9.1141

          k =-0.2500 0.2500 0.9164 (  1971 PWs)   bands (ev):

   -10.7378 -10.6499 -10.6066 -10.5897 -10.5877 -10.5371 -10.4783 -10.4590
   -10.3823 -10.3543   3.7376   6.0498   7.1232   9.1082

          k = 0.5000 0.2500-0.4582 (  1992 PWs)   bands (ev):

   -10.7065 -10.6469 -10.6432 -10.5892 -10.5723 -10.5148 -10.4813 -10.4734
   -10.4561 -10.3916   2.0026   4.1400   9.3951  10.6280

          k = 0.2500 0.2500 0.0000 (  1991 PWs)   bands (ev):

   -10.7492 -10.7231 -10.6877 -10.6310 -10.5375 -10.4901 -10.4883 -10.4803
   -10.4374 -10.3438   0.2167   4.5868   9.5060  10.5372

          k = 0.5000-0.5000-1.8328 (  1998 PWs)   bands (ev):

   -10.7195 -10.7195 -10.6316 -10.6316 -10.5378 -10.5378 -10.4661 -10.4661
   -10.4268 -10.4268   1.8998   1.8998  11.4182  11.4182

          k = 0.0000 0.0000 0.9164 (  1971 PWs)   bands (ev):

   -10.7295 -10.6214 -10.6214 -10.6023 -10.5569 -10.5569 -10.5331 -10.4397
   -10.3847 -10.3387   3.2944   7.1418   7.9728   9.4588

          k = 0.7500 0.0000-0.4582 (  1985 PWs)   bands (ev):

   -10.6937 -10.6513 -10.5885 -10.5793 -10.5447 -10.5279 -10.5169 -10.4806
   -10.4740 -10.4177   3.0217   4.3586   7.2618   8.4571

          k = 0.5000 0.0000 0.0000 (  1986 PWs)   bands (ev):

   -10.7350 -10.7053 -10.6933 -10.5995 -10.5149 -10.5070 -10.5032 -10.4602
   -10.4583 -10.3888   0.7792   4.3532   7.0799  10.7924

          k = 0.7500-0.7500-1.8328 (  2004 PWs)   bands (ev):

   -10.7260 -10.7260 -10.5937 -10.5937 -10.5300 -10.5300 -10.4803 -10.4803
   -10.4514 -10.4514   2.4041   2.4041   7.9915   7.9915

          k = 0.5000-0.5000-0.9164 (  2004 PWs)   bands (ev):

   -10.7019 -10.7019 -10.6314 -10.6314 -10.5240 -10.5240 -10.4299 -10.4299
   -10.4029 -10.4029   4.8045   4.8045   7.2813   7.2813

          k = 0.0000 0.0000-1.8328 (  1982 PWs)   bands (ev):

   -10.7288 -10.7288 -10.5298 -10.5298 -10.5197 -10.5197 -10.5078 -10.5078
   -10.4950 -10.4950   3.2417   3.2417   6.0121   6.0121

     highest occupied level (ev):    11.4182

!    total energy              =    -325.56050590 Ry
     estimated scf accuracy    <       0.00000003 Ry

     The total energy is the sum of the following terms:
     one-electron contribution =    -107.29328481 Ry
     hartree contribution      =      74.46859618 Ry
     xc contribution           =     -95.22051404 Ry
     ewald contribution        =    -197.51530324 Ry

     convergence has been achieved in   5 iterations

     Writing all to output data dir ./beta-sn-scf/betatin.save/ :
     XML data file, charge density, pseudopotentials, collected wavefunctions

     init_run     :      0.38s CPU      0.42s WALL (       1 calls)
     electrons    :      0.18s CPU      0.24s WALL (       1 calls)

     Called by init_run:
     wfcinit      :      0.02s CPU      0.02s WALL (       1 calls)
     potinit      :      0.01s CPU      0.02s WALL (       1 calls)
     hinit0       :      0.32s CPU      0.34s WALL (       1 calls)

     Called by electrons:
     c_bands      :      0.11s CPU      0.13s WALL (       6 calls)
     sum_band     :      0.02s CPU      0.04s WALL (       6 calls)
     v_of_rho     :      0.02s CPU      0.03s WALL (       6 calls)
     newd         :      0.00s CPU      0.01s WALL (       6 calls)
     mix_rho      :      0.00s CPU      0.00s WALL (       6 calls)

     Called by c_bands:
     init_us_2    :      0.00s CPU      0.00s WALL (      26 calls)
     cegterg      :      0.10s CPU      0.11s WALL (      12 calls)

     Called by *egterg:
     cdiaghg      :      0.01s CPU      0.02s WALL (      50 calls)
     h_psi        :      0.08s CPU      0.10s WALL (      54 calls)
     s_psi        :      0.00s CPU      0.00s WALL (      54 calls)
     g_psi        :      0.00s CPU      0.00s WALL (      40 calls)

     Called by h_psi:
     h_psi:calbec :      0.01s CPU      0.01s WALL (      54 calls)
     vloc_psi     :      0.08s CPU      0.09s WALL (      54 calls)
     add_vuspsi   :      0.00s CPU      0.00s WALL (      54 calls)

     General routines
     calbec       :      0.00s CPU      0.01s WALL (      66 calls)
     fft          :      0.30s CPU      0.31s WALL (      67 calls)
     ffts         :      0.00s CPU      0.00s WALL (       6 calls)
     fftw         :      0.08s CPU      0.10s WALL (    1088 calls)

     Parallel routines

     PWSCF        :      0.78s CPU      1.02s WALL


   This run was terminated on:  16: 8:35   5Feb2026            

=------------------------------------------------------------------------------=
   JOB DONE.
=------------------------------------------------------------------------------=
