
     Program PWSCF v.7.3.1 starts on  5Feb2026 at 16:11: 1 

     This program is part of the open-source Quantum ESPRESSO suite
     for quantum simulation of materials; please cite
         "P. Giannozzi et al., J. Phys.:Condens. Matter 21 395502 (2009);
         "P. Giannozzi et al., J. Phys.:Condens. Matter 29 465901 (2017);
         "P. Giannozzi et al., J. Chem. Phys. 152 154105 (2020);
          URL http://www.quantum-espresso.org", 
     in publications or presentations arising from this work. More details at
     http://www.quantum-espresso.org/quote

     Parallel version (MPI), running on   128 processors

     MPI processes distributed on     1 nodes
     241369 MiB available memory on the printing compute node when the environment starts

     Waiting for input...
     Reading input from standard input

     Current dimensions of program PWSCF are:
     Max number of different atomic species (ntypx) = 10
     Max number of k-points (npk) =  40000
     Max angular momentum in pseudopotentials (lmaxx) =  4

     K-points division:     npool     =       8
     R & G space division:  proc/nbgrp/npool/nimage =      16
     Subspace diagonalization in iterative solution of the eigenvalue problem:
     a serial algorithm will be used


     Parallelization info
     --------------------
     sticks:   dense  smooth     PW     G-vecs:    dense   smooth      PW
     Min          86      86     28                 1538     1538     296
     Max          87      87     29                 1540     1540     297
     Sum        1389    1389    463                24623    24623    4741

     Using Slab Decomposition



     bravais-lattice index     =            7
     lattice parameter (alat)  =      11.0200  a.u.
     unit-cell volume          =     365.0809 (a.u.)^3
     number of atoms/cell      =            2
     number of atomic types    =            1
     number of electrons       =        28.00
     number of Kohn-Sham states=           14
     kinetic-energy cutoff     =      63.0000  Ry
     charge density cutoff     =     252.0000  Ry
     scf convergence threshold =      1.0E-07
     mixing beta               =       0.7000
     number of iterations used =            8  plain     mixing
     Exchange-correlation=  SLA  PW   GGX  GGC
                           (   1   4   2   2   0   0   0)

     celldm(1)=  11.020000  celldm(2)=   0.000000  celldm(3)=   0.545600
     celldm(4)=   0.000000  celldm(5)=   0.000000  celldm(6)=   0.000000

     crystal axes: (cart. coord. in units of alat)
               a(1) = (   0.500000  -0.500000   0.272800 )  
               a(2) = (   0.500000   0.500000   0.272800 )  
               a(3) = (  -0.500000  -0.500000   0.272800 )  

     reciprocal axes: (cart. coord. in units 2 pi/alat)
               b(1) = (  1.000000 -1.000000  0.000000 )  
               b(2) = (  0.000000  1.000000  1.832845 )  
               b(3) = ( -1.000000  0.000000  1.832845 )  


     PseudoPot. # 1 for Sn read from file:
     ./Sn.pw91-n-van.UPF
     MD5 check sum: a38d2a872edd1a4efd76c0a1a38f7031
     Pseudo is Ultrasoft + core correction, Zval = 14.0
     Generated by new atomic code, or converted to UPF format
     Using radial grid of  891 points,  6 beta functions with: 
                l(1) =   0
                l(2) =   0
                l(3) =   1
                l(4) =   1
                l(5) =   2
                l(6) =   2
     Q(r) pseudized with  8 coefficients,  rinner =    1.100   1.100   1.100
                                                       1.100   1.100

     atomic species   valence    mass     pseudopotential
     Sn               14.00   118.70000     Sn( 1.00)

     16 Sym. Ops., with inversion, found (12 have fractional translation)



   Cartesian axes

     site n.     atom                  positions (alat units)
         1        Sn     tau(   1) = (   0.0000000  -0.2500000   0.0682000  )
         2        Sn     tau(   2) = (   0.0000000   0.2500000  -0.0682000  )

     number of k points=    13
                       cart. coord. in units 2pi/alat
        k(    1) = (   0.0000000   0.0000000   0.0000000), wk =   0.0312500
        k(    2) = (  -0.2500000   0.0000000   0.4582111), wk =   0.2500000
        k(    3) = (   0.5000000   0.0000000  -0.9164223), wk =   0.1250000
        k(    4) = (  -0.2500000   0.2500000   0.9164223), wk =   0.2500000
        k(    5) = (   0.5000000   0.2500000  -0.4582111), wk =   0.5000000
        k(    6) = (   0.2500000   0.2500000   0.0000000), wk =   0.1250000
        k(    7) = (   0.5000000  -0.5000000  -1.8328446), wk =   0.0625000
        k(    8) = (   0.0000000   0.0000000   0.9164223), wk =   0.0625000
        k(    9) = (   0.7500000   0.0000000  -0.4582111), wk =   0.2500000
        k(   10) = (   0.5000000   0.0000000   0.0000000), wk =   0.1250000
        k(   11) = (   0.7500000  -0.7500000  -1.8328446), wk =   0.1250000
        k(   12) = (   0.5000000  -0.5000000  -0.9164223), wk =   0.0625000
        k(   13) = (   0.0000000   0.0000000  -1.8328446), wk =   0.0312500

     Dense  grid:    24623 G-vectors     FFT dimensions: (  48,  48,  48)

     Estimated max dynamical RAM per process >       3.19 MB

     Estimated total dynamical RAM >     366.13 MB

     Initial potential from superposition of free atoms

     starting charge      27.9964, renormalised to      28.0000
     Starting wfcs are   18 randomized atomic wfcs

     total cpu time spent up to now is        0.8 secs

     per-process dynamical memory:    10.9 Mb

     Self-consistent Calculation

     iteration #  1     ecut=    63.00 Ry     beta= 0.70
     Davidson diagonalization with overlap
     ethr =  1.00E-02,  avg # of iterations =  1.8

     Threshold (ethr) on eigenvalues was too large:
     Diagonalizing with lowered threshold

     Davidson diagonalization with overlap
     ethr =  2.41E-05,  avg # of iterations =  3.8

     total cpu time spent up to now is        0.9 secs

     total energy              =    -325.56790149 Ry
     estimated scf accuracy    <       0.00694791 Ry

     iteration #  2     ecut=    63.00 Ry     beta= 0.70
     Davidson diagonalization with overlap
     ethr =  2.48E-05,  avg # of iterations =  2.0

     total cpu time spent up to now is        0.9 secs

     total energy              =    -325.56888477 Ry
     estimated scf accuracy    <       0.00056155 Ry

     iteration #  3     ecut=    63.00 Ry     beta= 0.70
     Davidson diagonalization with overlap
     ethr =  2.01E-06,  avg # of iterations =  2.4

     total cpu time spent up to now is        1.0 secs

     total energy              =    -325.56895465 Ry
     estimated scf accuracy    <       0.00004403 Ry

     iteration #  4     ecut=    63.00 Ry     beta= 0.70
     Davidson diagonalization with overlap
     ethr =  1.57E-07,  avg # of iterations =  2.8

     total cpu time spent up to now is        1.0 secs

     total energy              =    -325.56896028 Ry
     estimated scf accuracy    <       0.00000024 Ry

     iteration #  5     ecut=    63.00 Ry     beta= 0.70
     Davidson diagonalization with overlap
     ethr =  8.75E-10,  avg # of iterations =  3.9

     total cpu time spent up to now is        1.0 secs

     End of self-consistent calculation

          k = 0.0000 0.0000 0.0000 (  3107 PWs)   bands (ev):

   -10.8015 -10.7194 -10.6763 -10.6643 -10.5143 -10.5143 -10.5035 -10.5035
   -10.4116 -10.2982  -0.3465   7.1614   8.8405   8.8405

          k =-0.2500 0.0000 0.4582 (  3094 PWs)   bands (ev):

   -10.7657 -10.6389 -10.6336 -10.5925 -10.5703 -10.5291 -10.5204 -10.4972
   -10.4326 -10.3329   0.8917   6.5842   9.0450  11.2838

          k = 0.5000 0.0000-0.9164 (  3074 PWs)   bands (ev):

   -10.7266 -10.6564 -10.6401 -10.6000 -10.5664 -10.5635 -10.4648 -10.4169
   -10.4131 -10.3663   3.8537   5.3964   8.4880   9.1150

          k =-0.2500 0.2500 0.9164 (  3074 PWs)   bands (ev):

   -10.7405 -10.6531 -10.6099 -10.5932 -10.5911 -10.5404 -10.4812 -10.4623
   -10.3852 -10.3573   3.7392   6.0514   7.1243   9.1092

          k = 0.5000 0.2500-0.4582 (  3089 PWs)   bands (ev):

   -10.7092 -10.6500 -10.6464 -10.5925 -10.5756 -10.5182 -10.4847 -10.4768
   -10.4595 -10.3948   2.0041   4.1415   9.3965  10.6292

          k = 0.2500 0.2500 0.0000 (  3096 PWs)   bands (ev):

   -10.7516 -10.7262 -10.6910 -10.6344 -10.5410 -10.4938 -10.4918 -10.4840
   -10.4408 -10.3470   0.2181   4.5882   9.5072  10.5388

          k = 0.5000-0.5000-1.8328 (  3084 PWs)   bands (ev):

   -10.7226 -10.7226 -10.6345 -10.6345 -10.5412 -10.5412 -10.4696 -10.4696
   -10.4301 -10.4301   1.9012   1.9012  11.4193  11.4193

          k = 0.0000 0.0000 0.9164 (  3080 PWs)   bands (ev):

   -10.7318 -10.6251 -10.6251 -10.6056 -10.5606 -10.5606 -10.5356 -10.4432
   -10.3874 -10.3417   3.2960   7.1435   7.9739   9.4600

          k = 0.7500 0.0000-0.4582 (  3072 PWs)   bands (ev):

   -10.6962 -10.6541 -10.5918 -10.5828 -10.5482 -10.5314 -10.5204 -10.4840
   -10.4772 -10.4208   3.0231   4.3601   7.2632   8.4585

          k = 0.5000 0.0000 0.0000 (  3082 PWs)   bands (ev):

   -10.7377 -10.7085 -10.6961 -10.6030 -10.5183 -10.5105 -10.5069 -10.4637
   -10.4617 -10.3919   0.7806   4.3547   7.0812  10.7938

          k = 0.7500-0.7500-1.8328 (  3088 PWs)   bands (ev):

   -10.7290 -10.7290 -10.5967 -10.5967 -10.5333 -10.5333 -10.4839 -10.4839
   -10.4549 -10.4549   2.4055   2.4055   7.9929   7.9929

          k = 0.5000-0.5000-0.9164 (  3072 PWs)   bands (ev):

   -10.7049 -10.7049 -10.6347 -10.6347 -10.5274 -10.5274 -10.4332 -10.4332
   -10.4059 -10.4059   4.8062   4.8062   7.2823   7.2823

          k = 0.0000 0.0000-1.8328 (  3052 PWs)   bands (ev):

   -10.7316 -10.7316 -10.5327 -10.5327 -10.5229 -10.5229 -10.5112 -10.5112
   -10.4987 -10.4987   3.2431   3.2431   6.0134   6.0134

     highest occupied level (ev):    11.4193

!    total energy              =    -325.56896047 Ry
     estimated scf accuracy    <          7.5E-09 Ry

     The total energy is the sum of the following terms:
     one-electron contribution =    -107.30364268 Ry
     hartree contribution      =      74.47174789 Ry
     xc contribution           =     -95.22176247 Ry
     ewald contribution        =    -197.51530321 Ry

     convergence has been achieved in   5 iterations

     Writing all to output data dir ./beta-sn-scf/betatin.save/ :
     XML data file, charge density, pseudopotentials, collected wavefunctions

     init_run     :      0.44s CPU      0.49s WALL (       1 calls)
     electrons    :      0.24s CPU      0.28s WALL (       1 calls)

     Called by init_run:
     wfcinit      :      0.02s CPU      0.03s WALL (       1 calls)
     potinit      :      0.01s CPU      0.02s WALL (       1 calls)
     hinit0       :      0.38s CPU      0.40s WALL (       1 calls)

     Called by electrons:
     c_bands      :      0.15s CPU      0.16s WALL (       6 calls)
     sum_band     :      0.04s CPU      0.05s WALL (       6 calls)
     v_of_rho     :      0.03s CPU      0.04s WALL (       6 calls)
     newd         :      0.01s CPU      0.01s WALL (       6 calls)
     mix_rho      :      0.00s CPU      0.00s WALL (       6 calls)

     Called by c_bands:
     init_us_2    :      0.00s CPU      0.00s WALL (      26 calls)
     cegterg      :      0.13s CPU      0.14s WALL (      12 calls)

     Called by *egterg:
     cdiaghg      :      0.02s CPU      0.02s WALL (      52 calls)
     h_psi        :      0.12s CPU      0.12s WALL (      56 calls)
     s_psi        :      0.00s CPU      0.00s WALL (      56 calls)
     g_psi        :      0.00s CPU      0.00s WALL (      42 calls)

     Called by h_psi:
     h_psi:calbec :      0.01s CPU      0.01s WALL (      56 calls)
     vloc_psi     :      0.11s CPU      0.11s WALL (      56 calls)
     add_vuspsi   :      0.00s CPU      0.00s WALL (      56 calls)

     General routines
     calbec       :      0.01s CPU      0.01s WALL (      68 calls)
     fft          :      0.36s CPU      0.37s WALL (      67 calls)
     ffts         :      0.00s CPU      0.00s WALL (       6 calls)
     fftw         :      0.11s CPU      0.12s WALL (    1108 calls)

     Parallel routines

     PWSCF        :      0.89s CPU      1.15s WALL


   This run was terminated on:  16:11: 2   5Feb2026            

=------------------------------------------------------------------------------=
   JOB DONE.
=------------------------------------------------------------------------------=
