
     Program PWSCF v.7.3.1 starts on  5Feb2026 at 16:16:46 

     This program is part of the open-source Quantum ESPRESSO suite
     for quantum simulation of materials; please cite
         "P. Giannozzi et al., J. Phys.:Condens. Matter 21 395502 (2009);
         "P. Giannozzi et al., J. Phys.:Condens. Matter 29 465901 (2017);
         "P. Giannozzi et al., J. Chem. Phys. 152 154105 (2020);
          URL http://www.quantum-espresso.org", 
     in publications or presentations arising from this work. More details at
     http://www.quantum-espresso.org/quote

     Parallel version (MPI), running on   128 processors

     MPI processes distributed on     1 nodes
     241360 MiB available memory on the printing compute node when the environment starts

     Waiting for input...
     Reading input from standard input

     Current dimensions of program PWSCF are:
     Max number of different atomic species (ntypx) = 10
     Max number of k-points (npk) =  40000
     Max angular momentum in pseudopotentials (lmaxx) =  4

     K-points division:     npool     =       8
     R & G space division:  proc/nbgrp/npool/nimage =      16
     Subspace diagonalization in iterative solution of the eigenvalue problem:
     a serial algorithm will be used


     Parallelization info
     --------------------
     sticks:   dense  smooth     PW     G-vecs:    dense   smooth      PW
     Min         129     129     41                 2849     2849     506
     Max         130     130     42                 2852     2852     507
     Sum        2077    2077    663                45615    45615    8099

     Using Slab Decomposition



     bravais-lattice index     =            7
     lattice parameter (alat)  =      11.0200  a.u.
     unit-cell volume          =     365.0809 (a.u.)^3
     number of atoms/cell      =            2
     number of atomic types    =            1
     number of electrons       =        28.00
     number of Kohn-Sham states=           14
     kinetic-energy cutoff     =      95.0000  Ry
     charge density cutoff     =     380.0000  Ry
     scf convergence threshold =      1.0E-07
     mixing beta               =       0.7000
     number of iterations used =            8  plain     mixing
     Exchange-correlation=  SLA  PW   GGX  GGC
                           (   1   4   2   2   0   0   0)

     celldm(1)=  11.020000  celldm(2)=   0.000000  celldm(3)=   0.545600
     celldm(4)=   0.000000  celldm(5)=   0.000000  celldm(6)=   0.000000

     crystal axes: (cart. coord. in units of alat)
               a(1) = (   0.500000  -0.500000   0.272800 )  
               a(2) = (   0.500000   0.500000   0.272800 )  
               a(3) = (  -0.500000  -0.500000   0.272800 )  

     reciprocal axes: (cart. coord. in units 2 pi/alat)
               b(1) = (  1.000000 -1.000000  0.000000 )  
               b(2) = (  0.000000  1.000000  1.832845 )  
               b(3) = ( -1.000000  0.000000  1.832845 )  


     PseudoPot. # 1 for Sn read from file:
     ./Sn.pw91-n-van.UPF
     MD5 check sum: a38d2a872edd1a4efd76c0a1a38f7031
     Pseudo is Ultrasoft + core correction, Zval = 14.0
     Generated by new atomic code, or converted to UPF format
     Using radial grid of  891 points,  6 beta functions with: 
                l(1) =   0
                l(2) =   0
                l(3) =   1
                l(4) =   1
                l(5) =   2
                l(6) =   2
     Q(r) pseudized with  8 coefficients,  rinner =    1.100   1.100   1.100
                                                       1.100   1.100

     atomic species   valence    mass     pseudopotential
     Sn               14.00   118.70000     Sn( 1.00)

     16 Sym. Ops., with inversion, found (12 have fractional translation)



   Cartesian axes

     site n.     atom                  positions (alat units)
         1        Sn     tau(   1) = (   0.0000000  -0.2500000   0.0682000  )
         2        Sn     tau(   2) = (   0.0000000   0.2500000  -0.0682000  )

     number of k points=    13
                       cart. coord. in units 2pi/alat
        k(    1) = (   0.0000000   0.0000000   0.0000000), wk =   0.0312500
        k(    2) = (  -0.2500000   0.0000000   0.4582111), wk =   0.2500000
        k(    3) = (   0.5000000   0.0000000  -0.9164223), wk =   0.1250000
        k(    4) = (  -0.2500000   0.2500000   0.9164223), wk =   0.2500000
        k(    5) = (   0.5000000   0.2500000  -0.4582111), wk =   0.5000000
        k(    6) = (   0.2500000   0.2500000   0.0000000), wk =   0.1250000
        k(    7) = (   0.5000000  -0.5000000  -1.8328446), wk =   0.0625000
        k(    8) = (   0.0000000   0.0000000   0.9164223), wk =   0.0625000
        k(    9) = (   0.7500000   0.0000000  -0.4582111), wk =   0.2500000
        k(   10) = (   0.5000000   0.0000000   0.0000000), wk =   0.1250000
        k(   11) = (   0.7500000  -0.7500000  -1.8328446), wk =   0.1250000
        k(   12) = (   0.5000000  -0.5000000  -0.9164223), wk =   0.0625000
        k(   13) = (   0.0000000   0.0000000  -1.8328446), wk =   0.0312500

     Dense  grid:    45615 G-vectors     FFT dimensions: (  54,  54,  54)

     Estimated max dynamical RAM per process >       5.03 MB

     Estimated total dynamical RAM >     566.35 MB

     Initial potential from superposition of free atoms

     starting charge      27.9964, renormalised to      28.0000
     Starting wfcs are   18 randomized atomic wfcs

     total cpu time spent up to now is        0.7 secs

     per-process dynamical memory:    12.8 Mb

     Self-consistent Calculation

     iteration #  1     ecut=    95.00 Ry     beta= 0.70
     Davidson diagonalization with overlap
     ethr =  1.00E-02,  avg # of iterations =  1.8

     Threshold (ethr) on eigenvalues was too large:
     Diagonalizing with lowered threshold

     Davidson diagonalization with overlap
     ethr =  2.39E-05,  avg # of iterations =  3.8

     total cpu time spent up to now is        0.8 secs

     total energy              =    -325.57161450 Ry
     estimated scf accuracy    <       0.00693203 Ry

     iteration #  2     ecut=    95.00 Ry     beta= 0.70
     Davidson diagonalization with overlap
     ethr =  2.48E-05,  avg # of iterations =  2.0

     total cpu time spent up to now is        0.9 secs

     total energy              =    -325.57258377 Ry
     estimated scf accuracy    <       0.00056020 Ry

     iteration #  3     ecut=    95.00 Ry     beta= 0.70
     Davidson diagonalization with overlap
     ethr =  2.00E-06,  avg # of iterations =  2.4

     total cpu time spent up to now is        1.0 secs

     total energy              =    -325.57265120 Ry
     estimated scf accuracy    <       0.00004344 Ry

     iteration #  4     ecut=    95.00 Ry     beta= 0.70
     Davidson diagonalization with overlap
     ethr =  1.55E-07,  avg # of iterations =  2.9

     total cpu time spent up to now is        1.0 secs

     total energy              =    -325.57265617 Ry
     estimated scf accuracy    <       0.00000024 Ry

     iteration #  5     ecut=    95.00 Ry     beta= 0.70
     Davidson diagonalization with overlap
     ethr =  8.44E-10,  avg # of iterations =  4.4

     total cpu time spent up to now is        1.1 secs

     End of self-consistent calculation

          k = 0.0000 0.0000 0.0000 (  5737 PWs)   bands (ev):

   -10.8048 -10.7220 -10.6779 -10.6667 -10.5165 -10.5165 -10.5054 -10.5054
   -10.4132 -10.3013  -0.3473   7.1611   8.8397   8.8397

          k =-0.2500 0.0000 0.4582 (  5693 PWs)   bands (ev):

   -10.7689 -10.6406 -10.6362 -10.5949 -10.5723 -10.5310 -10.5226 -10.4997
   -10.4342 -10.3358   0.8909   6.5838   9.0441  11.2832

          k = 0.5000 0.0000-0.9164 (  5696 PWs)   bands (ev):

   -10.7294 -10.6589 -10.6420 -10.6027 -10.5684 -10.5655 -10.4666 -10.4196
   -10.4159 -10.3693   3.8532   5.3956   8.4873   9.1143

          k =-0.2500 0.2500 0.9164 (  5707 PWs)   bands (ev):

   -10.7433 -10.6555 -10.6122 -10.5950 -10.5933 -10.5427 -10.4839 -10.4643
   -10.3881 -10.3603   3.7386   6.0509   7.1233   9.1084

          k = 0.5000 0.2500-0.4582 (  5707 PWs)   bands (ev):

   -10.7121 -10.6525 -10.6489 -10.5948 -10.5775 -10.5204 -10.4867 -10.4791
   -10.4620 -10.3975   2.0033   4.1409   9.3956  10.6282

          k = 0.2500 0.2500 0.0000 (  5698 PWs)   bands (ev):

   -10.7548 -10.7288 -10.6935 -10.6361 -10.5432 -10.4957 -10.4940 -10.4860
   -10.4426 -10.3498   0.2173   4.5876   9.5064  10.5378

          k = 0.5000-0.5000-1.8328 (  5688 PWs)   bands (ev):

   -10.7252 -10.7252 -10.6373 -10.6373 -10.5430 -10.5430 -10.4717 -10.4717
   -10.4326 -10.4326   1.9005   1.9005  11.4185  11.4185

          k = 0.0000 0.0000 0.9164 (  5693 PWs)   bands (ev):

   -10.7350 -10.6271 -10.6271 -10.6074 -10.5626 -10.5626 -10.5388 -10.4450
   -10.3905 -10.3447   3.2953   7.1430   7.9730   9.4591

          k = 0.7500 0.0000-0.4582 (  5726 PWs)   bands (ev):

   -10.6993 -10.6569 -10.5942 -10.5848 -10.5502 -10.5336 -10.5227 -10.4859
   -10.4799 -10.4236   3.0225   4.3596   7.2619   8.4575

          k = 0.5000 0.0000 0.0000 (  5717 PWs)   bands (ev):

   -10.7407 -10.7110 -10.6990 -10.6046 -10.5206 -10.5127 -10.5088 -10.4660
   -10.4636 -10.3947   0.7799   4.3542   7.0800  10.7928

          k = 0.7500-0.7500-1.8328 (  5724 PWs)   bands (ev):

   -10.7317 -10.7317 -10.5994 -10.5994 -10.5352 -10.5352 -10.4860 -10.4860
   -10.4573 -10.4573   2.4048   2.4048   7.9918   7.9918

          k = 0.5000-0.5000-0.9164 (  5724 PWs)   bands (ev):

   -10.7075 -10.7075 -10.6370 -10.6370 -10.5292 -10.5292 -10.4358 -10.4358
   -10.4087 -10.4087   4.8057   4.8057   7.2812   7.2812

          k = 0.0000 0.0000-1.8328 (  5718 PWs)   bands (ev):

   -10.7345 -10.7345 -10.5357 -10.5357 -10.5249 -10.5249 -10.5135 -10.5135
   -10.5007 -10.5007   3.2426   3.2426   6.0121   6.0121

     highest occupied level (ev):    11.4185

!    total energy              =    -325.57265637 Ry
     estimated scf accuracy    <          7.0E-09 Ry

     The total energy is the sum of the following terms:
     one-electron contribution =    -107.30774947 Ry
     hartree contribution      =      74.47157518 Ry
     xc contribution           =     -95.22117888 Ry
     ewald contribution        =    -197.51530320 Ry

     convergence has been achieved in   5 iterations

     Writing all to output data dir ./beta-sn-scf/betatin.save/ :
     XML data file, charge density, pseudopotentials, collected wavefunctions

     init_run     :      0.32s CPU      0.37s WALL (       1 calls)
     electrons    :      0.40s CPU      0.46s WALL (       1 calls)

     Called by init_run:
     wfcinit      :      0.02s CPU      0.03s WALL (       1 calls)
     potinit      :      0.02s CPU      0.03s WALL (       1 calls)
     hinit0       :      0.23s CPU      0.25s WALL (       1 calls)

     Called by electrons:
     c_bands      :      0.23s CPU      0.25s WALL (       6 calls)
     sum_band     :      0.07s CPU      0.08s WALL (       6 calls)
     v_of_rho     :      0.06s CPU      0.08s WALL (       6 calls)
     newd         :      0.02s CPU      0.03s WALL (       6 calls)
     mix_rho      :      0.01s CPU      0.01s WALL (       6 calls)

     Called by c_bands:
     init_us_2    :      0.00s CPU      0.01s WALL (      26 calls)
     cegterg      :      0.21s CPU      0.22s WALL (      12 calls)

     Called by *egterg:
     cdiaghg      :      0.02s CPU      0.02s WALL (      52 calls)
     h_psi        :      0.19s CPU      0.21s WALL (      56 calls)
     s_psi        :      0.00s CPU      0.00s WALL (      56 calls)
     g_psi        :      0.00s CPU      0.00s WALL (      42 calls)

     Called by h_psi:
     h_psi:calbec :      0.01s CPU      0.01s WALL (      56 calls)
     vloc_psi     :      0.17s CPU      0.19s WALL (      56 calls)
     add_vuspsi   :      0.00s CPU      0.00s WALL (      56 calls)

     General routines
     calbec       :      0.01s CPU      0.01s WALL (      68 calls)
     fft          :      0.23s CPU      0.24s WALL (      67 calls)
     ffts         :      0.00s CPU      0.00s WALL (       6 calls)
     fftw         :      0.19s CPU      0.20s WALL (    1108 calls)

     Parallel routines

     PWSCF        :      0.98s CPU      1.22s WALL


   This run was terminated on:  16:16:47   5Feb2026            

=------------------------------------------------------------------------------=
   JOB DONE.
=------------------------------------------------------------------------------=
