
     Program PWSCF v.7.3.1 starts on  5Feb2026 at 16:31:46 

     This program is part of the open-source Quantum ESPRESSO suite
     for quantum simulation of materials; please cite
         "P. Giannozzi et al., J. Phys.:Condens. Matter 21 395502 (2009);
         "P. Giannozzi et al., J. Phys.:Condens. Matter 29 465901 (2017);
         "P. Giannozzi et al., J. Chem. Phys. 152 154105 (2020);
          URL http://www.quantum-espresso.org", 
     in publications or presentations arising from this work. More details at
     http://www.quantum-espresso.org/quote

     Parallel version (MPI), running on   128 processors

     MPI processes distributed on     1 nodes
     241305 MiB available memory on the printing compute node when the environment starts

     Waiting for input...
     Reading input from standard input

     Current dimensions of program PWSCF are:
     Max number of different atomic species (ntypx) = 10
     Max number of k-points (npk) =  40000
     Max angular momentum in pseudopotentials (lmaxx) =  4

     K-points division:     npool     =       4
     R & G space division:  proc/nbgrp/npool/nimage =      32
     Subspace diagonalization in iterative solution of the eigenvalue problem:
     a serial algorithm will be used


     Parallelization info
     --------------------
     sticks:   dense  smooth     PW     G-vecs:    dense   smooth      PW
     Min         120     120     36                 3567     3567     579
     Max         121     121     37                 3569     3569     581
     Sum        3855    3855   1153               114173   114173   18561

     Using Slab Decomposition



     bravais-lattice index     =            7
     lattice parameter (alat)  =      11.0200  a.u.
     unit-cell volume          =     365.0809 (a.u.)^3
     number of atoms/cell      =            2
     number of atomic types    =            1
     number of electrons       =        28.00
     number of Kohn-Sham states=           14
     kinetic-energy cutoff     =     175.0000  Ry
     charge density cutoff     =     700.0000  Ry
     scf convergence threshold =      1.0E-07
     mixing beta               =       0.7000
     number of iterations used =            8  plain     mixing
     Exchange-correlation=  SLA  PW   GGX  GGC
                           (   1   4   2   2   0   0   0)

     celldm(1)=  11.020000  celldm(2)=   0.000000  celldm(3)=   0.545600
     celldm(4)=   0.000000  celldm(5)=   0.000000  celldm(6)=   0.000000

     crystal axes: (cart. coord. in units of alat)
               a(1) = (   0.500000  -0.500000   0.272800 )  
               a(2) = (   0.500000   0.500000   0.272800 )  
               a(3) = (  -0.500000  -0.500000   0.272800 )  

     reciprocal axes: (cart. coord. in units 2 pi/alat)
               b(1) = (  1.000000 -1.000000  0.000000 )  
               b(2) = (  0.000000  1.000000  1.832845 )  
               b(3) = ( -1.000000  0.000000  1.832845 )  


     PseudoPot. # 1 for Sn read from file:
     ./Sn.pw91-n-van.UPF
     MD5 check sum: a38d2a872edd1a4efd76c0a1a38f7031
     Pseudo is Ultrasoft + core correction, Zval = 14.0
     Generated by new atomic code, or converted to UPF format
     Using radial grid of  891 points,  6 beta functions with: 
                l(1) =   0
                l(2) =   0
                l(3) =   1
                l(4) =   1
                l(5) =   2
                l(6) =   2
     Q(r) pseudized with  8 coefficients,  rinner =    1.100   1.100   1.100
                                                       1.100   1.100

     atomic species   valence    mass     pseudopotential
     Sn               14.00   118.70000     Sn( 1.00)

     16 Sym. Ops., with inversion, found (12 have fractional translation)



   Cartesian axes

     site n.     atom                  positions (alat units)
         1        Sn     tau(   1) = (   0.0000000  -0.2500000   0.0682000  )
         2        Sn     tau(   2) = (   0.0000000   0.2500000  -0.0682000  )

     number of k points=    13
                       cart. coord. in units 2pi/alat
        k(    1) = (   0.0000000   0.0000000   0.0000000), wk =   0.0312500
        k(    2) = (  -0.2500000   0.0000000   0.4582111), wk =   0.2500000
        k(    3) = (   0.5000000   0.0000000  -0.9164223), wk =   0.1250000
        k(    4) = (  -0.2500000   0.2500000   0.9164223), wk =   0.2500000
        k(    5) = (   0.5000000   0.2500000  -0.4582111), wk =   0.5000000
        k(    6) = (   0.2500000   0.2500000   0.0000000), wk =   0.1250000
        k(    7) = (   0.5000000  -0.5000000  -1.8328446), wk =   0.0625000
        k(    8) = (   0.0000000   0.0000000   0.9164223), wk =   0.0625000
        k(    9) = (   0.7500000   0.0000000  -0.4582111), wk =   0.2500000
        k(   10) = (   0.5000000   0.0000000   0.0000000), wk =   0.1250000
        k(   11) = (   0.7500000  -0.7500000  -1.8328446), wk =   0.1250000
        k(   12) = (   0.5000000  -0.5000000  -0.9164223), wk =   0.0625000
        k(   13) = (   0.0000000   0.0000000  -1.8328446), wk =   0.0312500

     Dense  grid:   114173 G-vectors     FFT dimensions: (  72,  72,  72)

     Estimated max dynamical RAM per process >       8.00 MB

     Estimated total dynamical RAM >     939.71 MB

     Initial potential from superposition of free atoms

     starting charge      27.9964, renormalised to      28.0000
     Starting wfcs are   18 randomized atomic wfcs

     total cpu time spent up to now is        1.1 secs

     per-process dynamical memory:    13.3 Mb

     Self-consistent Calculation

     iteration #  1     ecut=   175.00 Ry     beta= 0.70
     Davidson diagonalization with overlap
     ethr =  1.00E-02,  avg # of iterations =  2.0

     Threshold (ethr) on eigenvalues was too large:
     Diagonalizing with lowered threshold

     Davidson diagonalization with overlap
     ethr =  2.31E-05,  avg # of iterations =  3.6

     total cpu time spent up to now is        1.4 secs

     total energy              =    -325.58441350 Ry
     estimated scf accuracy    <       0.00677086 Ry

     iteration #  2     ecut=   175.00 Ry     beta= 0.70
     Davidson diagonalization with overlap
     ethr =  2.42E-05,  avg # of iterations =  2.0

     total cpu time spent up to now is        1.6 secs

     total energy              =    -325.58616684 Ry
     estimated scf accuracy    <       0.00047772 Ry

     iteration #  3     ecut=   175.00 Ry     beta= 0.70
     Davidson diagonalization with overlap
     ethr =  1.71E-06,  avg # of iterations =  2.4

     total cpu time spent up to now is        1.7 secs

     total energy              =    -325.58628514 Ry
     estimated scf accuracy    <       0.00003403 Ry

     iteration #  4     ecut=   175.00 Ry     beta= 0.70
     Davidson diagonalization with overlap
     ethr =  1.22E-07,  avg # of iterations =  2.5

     total cpu time spent up to now is        1.8 secs

     total energy              =    -325.58628932 Ry
     estimated scf accuracy    <       0.00000029 Ry

     iteration #  5     ecut=   175.00 Ry     beta= 0.70
     Davidson diagonalization with overlap
     ethr =  1.05E-09,  avg # of iterations =  3.7

     total cpu time spent up to now is        2.0 secs

     End of self-consistent calculation

          k = 0.0000 0.0000 0.0000 ( 14369 PWs)   bands (ev):

   -10.8102 -10.7277 -10.6840 -10.6726 -10.5224 -10.5224 -10.5114 -10.5114
   -10.4194 -10.3076  -0.3471   7.1618   8.8398   8.8398

          k =-0.2500 0.0000 0.4582 ( 14290 PWs)   bands (ev):

   -10.7744 -10.6466 -10.6419 -10.6007 -10.5782 -10.5370 -10.5285 -10.5056
   -10.4404 -10.3419   0.8912   6.5843   9.0440  11.2833

          k = 0.5000 0.0000-0.9164 ( 14256 PWs)   bands (ev):

   -10.7351 -10.6645 -10.6479 -10.6084 -10.5743 -10.5713 -10.4727 -10.4256
   -10.4218 -10.3754   3.8536   5.3959   8.4877   9.1144

          k =-0.2500 0.2500 0.9164 ( 14268 PWs)   bands (ev):

   -10.7489 -10.6612 -10.6179 -10.6010 -10.5991 -10.5485 -10.4897 -10.4704
   -10.3940 -10.3663   3.7389   6.0513   7.1233   9.1085

          k = 0.5000 0.2500-0.4582 ( 14277 PWs)   bands (ev):

   -10.7177 -10.6582 -10.6546 -10.6006 -10.5835 -10.5263 -10.4927 -10.4851
   -10.4679 -10.4036   2.0036   4.1413   9.3956  10.6281

          k = 0.2500 0.2500 0.0000 ( 14277 PWs)   bands (ev):

   -10.7603 -10.7345 -10.6992 -10.6420 -10.5490 -10.5017 -10.5000 -10.4920
   -10.4486 -10.3559   0.2176   4.5880   9.5064  10.5379

          k = 0.5000-0.5000-1.8328 ( 14260 PWs)   bands (ev):

   -10.7308 -10.7308 -10.6430 -10.6430 -10.5490 -10.5490 -10.4777 -10.4777
   -10.4385 -10.4385   1.9008   1.9008  11.4184  11.4184

          k = 0.0000 0.0000 0.9164 ( 14261 PWs)   bands (ev):

   -10.7405 -10.6329 -10.6329 -10.6134 -10.5684 -10.5684 -10.5444 -10.4510
   -10.3965 -10.3507   3.2956   7.1435   7.9732   9.4590

          k = 0.7500 0.0000-0.4582 ( 14249 PWs)   bands (ev):

   -10.7048 -10.6626 -10.6000 -10.5906 -10.5560 -10.5395 -10.5285 -10.4919
   -10.4858 -10.4296   3.0228   4.3600   7.2618   8.4574

          k = 0.5000 0.0000 0.0000 ( 14277 PWs)   bands (ev):

   -10.7462 -10.7167 -10.7046 -10.6106 -10.5265 -10.5185 -10.5149 -10.4720
   -10.4697 -10.4007   0.7801   4.3546   7.0799  10.7927

          k = 0.7500-0.7500-1.8328 ( 14272 PWs)   bands (ev):

   -10.7373 -10.7373 -10.6052 -10.6052 -10.5412 -10.5412 -10.4919 -10.4919
   -10.4632 -10.4632   2.4051   2.4051   7.9917   7.9917

          k = 0.5000-0.5000-0.9164 ( 14300 PWs)   bands (ev):

   -10.7132 -10.7132 -10.6428 -10.6428 -10.5352 -10.5352 -10.4418 -10.4418
   -10.4146 -10.4146   4.8061   4.8061   7.2812   7.2812

          k = 0.0000 0.0000-1.8328 ( 14260 PWs)   bands (ev):

   -10.7401 -10.7401 -10.5415 -10.5415 -10.5309 -10.5309 -10.5193 -10.5193
   -10.5067 -10.5067   3.2429   3.2429   6.0120   6.0120

     highest occupied level (ev):    11.4184

!    total energy              =    -325.58628950 Ry
     estimated scf accuracy    <          5.5E-09 Ry

     The total energy is the sum of the following terms:
     one-electron contribution =    -107.32513236 Ry
     hartree contribution      =      74.47655589 Ry
     xc contribution           =     -95.22240983 Ry
     ewald contribution        =    -197.51530320 Ry

     convergence has been achieved in   5 iterations

     Writing all to output data dir ./beta-sn-scf/betatin.save/ :
     XML data file, charge density, pseudopotentials, collected wavefunctions

     init_run     :      0.71s CPU      0.80s WALL (       1 calls)
     electrons    :      0.84s CPU      0.93s WALL (       1 calls)

     Called by init_run:
     wfcinit      :      0.06s CPU      0.07s WALL (       1 calls)
     potinit      :      0.02s CPU      0.04s WALL (       1 calls)
     hinit0       :      0.58s CPU      0.59s WALL (       1 calls)

     Called by electrons:
     c_bands      :      0.56s CPU      0.60s WALL (       6 calls)
     sum_band     :      0.15s CPU      0.17s WALL (       6 calls)
     v_of_rho     :      0.07s CPU      0.09s WALL (       6 calls)
     newd         :      0.03s CPU      0.04s WALL (       6 calls)
     mix_rho      :      0.01s CPU      0.01s WALL (       6 calls)

     Called by c_bands:
     init_us_2    :      0.01s CPU      0.01s WALL (      52 calls)
     cegterg      :      0.53s CPU      0.55s WALL (      24 calls)

     Called by *egterg:
     cdiaghg      :      0.03s CPU      0.03s WALL (      90 calls)
     h_psi        :      0.50s CPU      0.52s WALL (      98 calls)
     s_psi        :      0.01s CPU      0.01s WALL (      98 calls)
     g_psi        :      0.00s CPU      0.00s WALL (      70 calls)

     Called by h_psi:
     h_psi:calbec :      0.01s CPU      0.02s WALL (      98 calls)
     vloc_psi     :      0.48s CPU      0.49s WALL (      98 calls)
     add_vuspsi   :      0.01s CPU      0.01s WALL (      98 calls)

     General routines
     calbec       :      0.02s CPU      0.02s WALL (     122 calls)
     fft          :      0.59s CPU      0.59s WALL (      67 calls)
     ffts         :      0.00s CPU      0.00s WALL (       6 calls)
     fftw         :      0.51s CPU      0.53s WALL (    2152 calls)

     Parallel routines

     PWSCF        :      1.96s CPU      2.31s WALL


   This run was terminated on:  16:31:48   5Feb2026            

=------------------------------------------------------------------------------=
   JOB DONE.
=------------------------------------------------------------------------------=
