
     Program PWSCF v.7.3.1 starts on  5Feb2026 at 16:32:31 

     This program is part of the open-source Quantum ESPRESSO suite
     for quantum simulation of materials; please cite
         "P. Giannozzi et al., J. Phys.:Condens. Matter 21 395502 (2009);
         "P. Giannozzi et al., J. Phys.:Condens. Matter 29 465901 (2017);
         "P. Giannozzi et al., J. Chem. Phys. 152 154105 (2020);
          URL http://www.quantum-espresso.org", 
     in publications or presentations arising from this work. More details at
     http://www.quantum-espresso.org/quote

     Parallel version (MPI), running on   128 processors

     MPI processes distributed on     1 nodes
     241338 MiB available memory on the printing compute node when the environment starts

     Waiting for input...
     Reading input from standard input

     Current dimensions of program PWSCF are:
     Max number of different atomic species (ntypx) = 10
     Max number of k-points (npk) =  40000
     Max angular momentum in pseudopotentials (lmaxx) =  4

     K-points division:     npool     =       4
     R & G space division:  proc/nbgrp/npool/nimage =      32
     Subspace diagonalization in iterative solution of the eigenvalue problem:
     a serial algorithm will be used


     Parallelization info
     --------------------
     sticks:   dense  smooth     PW     G-vecs:    dense   smooth      PW
     Min         123     123     36                 3693     3693     597
     Max         124     124     37                 3695     3695     600
     Sum        3939    3939   1177               118209   118209   19149

     Using Slab Decomposition



     bravais-lattice index     =            7
     lattice parameter (alat)  =      11.0200  a.u.
     unit-cell volume          =     365.0809 (a.u.)^3
     number of atoms/cell      =            2
     number of atomic types    =            1
     number of electrons       =        28.00
     number of Kohn-Sham states=           14
     kinetic-energy cutoff     =     179.0000  Ry
     charge density cutoff     =     716.0000  Ry
     scf convergence threshold =      1.0E-07
     mixing beta               =       0.7000
     number of iterations used =            8  plain     mixing
     Exchange-correlation=  SLA  PW   GGX  GGC
                           (   1   4   2   2   0   0   0)

     celldm(1)=  11.020000  celldm(2)=   0.000000  celldm(3)=   0.545600
     celldm(4)=   0.000000  celldm(5)=   0.000000  celldm(6)=   0.000000

     crystal axes: (cart. coord. in units of alat)
               a(1) = (   0.500000  -0.500000   0.272800 )  
               a(2) = (   0.500000   0.500000   0.272800 )  
               a(3) = (  -0.500000  -0.500000   0.272800 )  

     reciprocal axes: (cart. coord. in units 2 pi/alat)
               b(1) = (  1.000000 -1.000000  0.000000 )  
               b(2) = (  0.000000  1.000000  1.832845 )  
               b(3) = ( -1.000000  0.000000  1.832845 )  


     PseudoPot. # 1 for Sn read from file:
     ./Sn.pw91-n-van.UPF
     MD5 check sum: a38d2a872edd1a4efd76c0a1a38f7031
     Pseudo is Ultrasoft + core correction, Zval = 14.0
     Generated by new atomic code, or converted to UPF format
     Using radial grid of  891 points,  6 beta functions with: 
                l(1) =   0
                l(2) =   0
                l(3) =   1
                l(4) =   1
                l(5) =   2
                l(6) =   2
     Q(r) pseudized with  8 coefficients,  rinner =    1.100   1.100   1.100
                                                       1.100   1.100

     atomic species   valence    mass     pseudopotential
     Sn               14.00   118.70000     Sn( 1.00)

     16 Sym. Ops., with inversion, found (12 have fractional translation)



   Cartesian axes

     site n.     atom                  positions (alat units)
         1        Sn     tau(   1) = (   0.0000000  -0.2500000   0.0682000  )
         2        Sn     tau(   2) = (   0.0000000   0.2500000  -0.0682000  )

     number of k points=    13
                       cart. coord. in units 2pi/alat
        k(    1) = (   0.0000000   0.0000000   0.0000000), wk =   0.0312500
        k(    2) = (  -0.2500000   0.0000000   0.4582111), wk =   0.2500000
        k(    3) = (   0.5000000   0.0000000  -0.9164223), wk =   0.1250000
        k(    4) = (  -0.2500000   0.2500000   0.9164223), wk =   0.2500000
        k(    5) = (   0.5000000   0.2500000  -0.4582111), wk =   0.5000000
        k(    6) = (   0.2500000   0.2500000   0.0000000), wk =   0.1250000
        k(    7) = (   0.5000000  -0.5000000  -1.8328446), wk =   0.0625000
        k(    8) = (   0.0000000   0.0000000   0.9164223), wk =   0.0625000
        k(    9) = (   0.7500000   0.0000000  -0.4582111), wk =   0.2500000
        k(   10) = (   0.5000000   0.0000000   0.0000000), wk =   0.1250000
        k(   11) = (   0.7500000  -0.7500000  -1.8328446), wk =   0.1250000
        k(   12) = (   0.5000000  -0.5000000  -0.9164223), wk =   0.0625000
        k(   13) = (   0.0000000   0.0000000  -1.8328446), wk =   0.0312500

     Dense  grid:   118209 G-vectors     FFT dimensions: (  72,  72,  72)

     Estimated max dynamical RAM per process >       8.19 MB

     Estimated total dynamical RAM >     961.18 MB

     Initial potential from superposition of free atoms

     starting charge      27.9964, renormalised to      28.0000
     Starting wfcs are   18 randomized atomic wfcs

     total cpu time spent up to now is        1.1 secs

     per-process dynamical memory:    15.0 Mb

     Self-consistent Calculation

     iteration #  1     ecut=   179.00 Ry     beta= 0.70
     Davidson diagonalization with overlap
     ethr =  1.00E-02,  avg # of iterations =  2.0

     Threshold (ethr) on eigenvalues was too large:
     Diagonalizing with lowered threshold

     Davidson diagonalization with overlap
     ethr =  2.27E-05,  avg # of iterations =  3.5

     total cpu time spent up to now is        1.4 secs

     total energy              =    -325.58498357 Ry
     estimated scf accuracy    <       0.00678132 Ry

     iteration #  2     ecut=   179.00 Ry     beta= 0.70
     Davidson diagonalization with overlap
     ethr =  2.42E-05,  avg # of iterations =  2.0

     total cpu time spent up to now is        1.6 secs

     total energy              =    -325.58696492 Ry
     estimated scf accuracy    <       0.00045900 Ry

     iteration #  3     ecut=   179.00 Ry     beta= 0.70
     Davidson diagonalization with overlap
     ethr =  1.64E-06,  avg # of iterations =  2.4

     total cpu time spent up to now is        1.7 secs

     total energy              =    -325.58709128 Ry
     estimated scf accuracy    <       0.00003056 Ry

     iteration #  4     ecut=   179.00 Ry     beta= 0.70
     Davidson diagonalization with overlap
     ethr =  1.09E-07,  avg # of iterations =  3.0

     total cpu time spent up to now is        1.8 secs

     total energy              =    -325.58709740 Ry
     estimated scf accuracy    <       0.00000055 Ry

     iteration #  5     ecut=   179.00 Ry     beta= 0.70
     Davidson diagonalization with overlap
     ethr =  1.95E-09,  avg # of iterations =  3.8

     total cpu time spent up to now is        2.0 secs

     End of self-consistent calculation

          k = 0.0000 0.0000 0.0000 ( 14721 PWs)   bands (ev):

   -10.8108 -10.7278 -10.6843 -10.6726 -10.5226 -10.5226 -10.5116 -10.5116
   -10.4199 -10.3079  -0.3471   7.1619   8.8397   8.8397

          k =-0.2500 0.0000 0.4582 ( 14755 PWs)   bands (ev):

   -10.7749 -10.6471 -10.6421 -10.6010 -10.5785 -10.5372 -10.5288 -10.5058
   -10.4409 -10.3424   0.8912   6.5844   9.0439  11.2833

          k = 0.5000 0.0000-0.9164 ( 14784 PWs)   bands (ev):

   -10.7355 -10.6650 -10.6482 -10.6088 -10.5749 -10.5718 -10.4732 -10.4260
   -10.4221 -10.3758   3.8535   5.3959   8.4878   9.1146

          k =-0.2500 0.2500 0.9164 ( 14766 PWs)   bands (ev):

   -10.7494 -10.6615 -10.6183 -10.6015 -10.5995 -10.5490 -10.4901 -10.4708
   -10.3943 -10.3667   3.7389   6.0513   7.1235   9.1086

          k = 0.5000 0.2500-0.4582 ( 14758 PWs)   bands (ev):

   -10.7181 -10.6586 -10.6548 -10.6010 -10.5840 -10.5267 -10.4931 -10.4854
   -10.4682 -10.4040   2.0036   4.1413   9.3955  10.6281

          k = 0.2500 0.2500 0.0000 ( 14761 PWs)   bands (ev):

   -10.7608 -10.7346 -10.6994 -10.6426 -10.5494 -10.5020 -10.5002 -10.4923
   -10.4492 -10.3564   0.2176   4.5880   9.5063  10.5379

          k = 0.5000-0.5000-1.8328 ( 14770 PWs)   bands (ev):

   -10.7311 -10.7311 -10.6434 -10.6434 -10.5495 -10.5495 -10.4780 -10.4780
   -10.4390 -10.4390   1.9008   1.9008  11.4182  11.4182

          k = 0.0000 0.0000 0.9164 ( 14777 PWs)   bands (ev):

   -10.7411 -10.6332 -10.6332 -10.6139 -10.5687 -10.5687 -10.5449 -10.4516
   -10.3967 -10.3512   3.2956   7.1436   7.9734   9.4588

          k = 0.7500 0.0000-0.4582 ( 14766 PWs)   bands (ev):

   -10.7054 -10.6629 -10.6003 -10.5910 -10.5566 -10.5398 -10.5289 -10.4925
   -10.4861 -10.4300   3.0228   4.3601   7.2617   8.4573

          k = 0.5000 0.0000 0.0000 ( 14771 PWs)   bands (ev):

   -10.7467 -10.7170 -10.7051 -10.6111 -10.5269 -10.5189 -10.5151 -10.4723
   -10.4702 -10.4012   0.7801   4.3546   7.0798  10.7926

          k = 0.7500-0.7500-1.8328 ( 14782 PWs)   bands (ev):

   -10.7377 -10.7377 -10.6056 -10.6056 -10.5418 -10.5418 -10.4923 -10.4923
   -10.4636 -10.4636   2.4051   2.4051   7.9917   7.9917

          k = 0.5000-0.5000-0.9164 ( 14712 PWs)   bands (ev):

   -10.7135 -10.7135 -10.6430 -10.6430 -10.5357 -10.5357 -10.4421 -10.4421
   -10.4149 -10.4149   4.8060   4.8060   7.2813   7.2813

          k = 0.0000 0.0000-1.8328 ( 14812 PWs)   bands (ev):

   -10.7405 -10.7405 -10.5421 -10.5421 -10.5316 -10.5316 -10.5197 -10.5197
   -10.5071 -10.5071   3.2429   3.2429   6.0119   6.0119

     highest occupied level (ev):    11.4182

!    total energy              =    -325.58709758 Ry
     estimated scf accuracy    <       0.00000005 Ry

     The total energy is the sum of the following terms:
     one-electron contribution =    -107.32634120 Ry
     hartree contribution      =      74.47708345 Ry
     xc contribution           =     -95.22253663 Ry
     ewald contribution        =    -197.51530320 Ry

     convergence has been achieved in   5 iterations

     Writing all to output data dir ./beta-sn-scf/betatin.save/ :
     XML data file, charge density, pseudopotentials, collected wavefunctions

     init_run     :      0.73s CPU      0.80s WALL (       1 calls)
     electrons    :      0.83s CPU      0.94s WALL (       1 calls)

     Called by init_run:
     wfcinit      :      0.06s CPU      0.07s WALL (       1 calls)
     potinit      :      0.02s CPU      0.04s WALL (       1 calls)
     hinit0       :      0.59s CPU      0.60s WALL (       1 calls)

     Called by electrons:
     c_bands      :      0.57s CPU      0.60s WALL (       6 calls)
     sum_band     :      0.15s CPU      0.17s WALL (       6 calls)
     v_of_rho     :      0.08s CPU      0.09s WALL (       6 calls)
     newd         :      0.03s CPU      0.04s WALL (       6 calls)
     mix_rho      :      0.01s CPU      0.01s WALL (       6 calls)

     Called by c_bands:
     init_us_2    :      0.01s CPU      0.01s WALL (      52 calls)
     cegterg      :      0.53s CPU      0.55s WALL (      24 calls)

     Called by *egterg:
     cdiaghg      :      0.03s CPU      0.03s WALL (      95 calls)
     h_psi        :      0.50s CPU      0.52s WALL (     103 calls)
     s_psi        :      0.01s CPU      0.01s WALL (     103 calls)
     g_psi        :      0.00s CPU      0.00s WALL (      75 calls)

     Called by h_psi:
     h_psi:calbec :      0.01s CPU      0.02s WALL (     103 calls)
     vloc_psi     :      0.47s CPU      0.49s WALL (     103 calls)
     add_vuspsi   :      0.01s CPU      0.01s WALL (     103 calls)

     General routines
     calbec       :      0.02s CPU      0.02s WALL (     127 calls)
     fft          :      0.59s CPU      0.60s WALL (      67 calls)
     ffts         :      0.00s CPU      0.00s WALL (       6 calls)
     fftw         :      0.51s CPU      0.53s WALL (    2130 calls)

     Parallel routines

     PWSCF        :      1.77s CPU      2.16s WALL


   This run was terminated on:  16:32:33   5Feb2026            

=------------------------------------------------------------------------------=
   JOB DONE.
=------------------------------------------------------------------------------=
