
     Program PWSCF v.7.3.1 starts on  5Feb2026 at 16: 9: 5 

     This program is part of the open-source Quantum ESPRESSO suite
     for quantum simulation of materials; please cite
         "P. Giannozzi et al., J. Phys.:Condens. Matter 21 395502 (2009);
         "P. Giannozzi et al., J. Phys.:Condens. Matter 29 465901 (2017);
         "P. Giannozzi et al., J. Chem. Phys. 152 154105 (2020);
          URL http://www.quantum-espresso.org", 
     in publications or presentations arising from this work. More details at
     http://www.quantum-espresso.org/quote

     Parallel version (MPI), running on   128 processors

     MPI processes distributed on     1 nodes
     241337 MiB available memory on the printing compute node when the environment starts

     Waiting for input...
     Reading input from standard input

     Current dimensions of program PWSCF are:
     Max number of different atomic species (ntypx) = 10
     Max number of k-points (npk) =  40000
     Max angular momentum in pseudopotentials (lmaxx) =  4

     K-points division:     npool     =       8
     R & G space division:  proc/nbgrp/npool/nimage =      16
     Subspace diagonalization in iterative solution of the eigenvalue problem:
     a serial algorithm will be used


     Parallelization info
     --------------------
     sticks:   dense  smooth     PW     G-vecs:    dense   smooth      PW
     Min          69      69     23                 1118     1118     222
     Max          70      70     24                 1120     1120     224
     Sum        1117    1117    383                17905    17905    3571

     Using Slab Decomposition



     bravais-lattice index     =            7
     lattice parameter (alat)  =      11.0200  a.u.
     unit-cell volume          =     365.0809 (a.u.)^3
     number of atoms/cell      =            2
     number of atomic types    =            1
     number of electrons       =        28.00
     number of Kohn-Sham states=           14
     kinetic-energy cutoff     =      51.0000  Ry
     charge density cutoff     =     204.0000  Ry
     scf convergence threshold =      1.0E-07
     mixing beta               =       0.7000
     number of iterations used =            8  plain     mixing
     Exchange-correlation=  SLA  PW   GGX  GGC
                           (   1   4   2   2   0   0   0)

     celldm(1)=  11.020000  celldm(2)=   0.000000  celldm(3)=   0.545600
     celldm(4)=   0.000000  celldm(5)=   0.000000  celldm(6)=   0.000000

     crystal axes: (cart. coord. in units of alat)
               a(1) = (   0.500000  -0.500000   0.272800 )  
               a(2) = (   0.500000   0.500000   0.272800 )  
               a(3) = (  -0.500000  -0.500000   0.272800 )  

     reciprocal axes: (cart. coord. in units 2 pi/alat)
               b(1) = (  1.000000 -1.000000  0.000000 )  
               b(2) = (  0.000000  1.000000  1.832845 )  
               b(3) = ( -1.000000  0.000000  1.832845 )  


     PseudoPot. # 1 for Sn read from file:
     ./Sn.pw91-n-van.UPF
     MD5 check sum: a38d2a872edd1a4efd76c0a1a38f7031
     Pseudo is Ultrasoft + core correction, Zval = 14.0
     Generated by new atomic code, or converted to UPF format
     Using radial grid of  891 points,  6 beta functions with: 
                l(1) =   0
                l(2) =   0
                l(3) =   1
                l(4) =   1
                l(5) =   2
                l(6) =   2
     Q(r) pseudized with  8 coefficients,  rinner =    1.100   1.100   1.100
                                                       1.100   1.100

     atomic species   valence    mass     pseudopotential
     Sn               14.00   118.70000     Sn( 1.00)

     16 Sym. Ops., with inversion, found (12 have fractional translation)



   Cartesian axes

     site n.     atom                  positions (alat units)
         1        Sn     tau(   1) = (   0.0000000  -0.2500000   0.0682000  )
         2        Sn     tau(   2) = (   0.0000000   0.2500000  -0.0682000  )

     number of k points=    13
                       cart. coord. in units 2pi/alat
        k(    1) = (   0.0000000   0.0000000   0.0000000), wk =   0.0312500
        k(    2) = (  -0.2500000   0.0000000   0.4582111), wk =   0.2500000
        k(    3) = (   0.5000000   0.0000000  -0.9164223), wk =   0.1250000
        k(    4) = (  -0.2500000   0.2500000   0.9164223), wk =   0.2500000
        k(    5) = (   0.5000000   0.2500000  -0.4582111), wk =   0.5000000
        k(    6) = (   0.2500000   0.2500000   0.0000000), wk =   0.1250000
        k(    7) = (   0.5000000  -0.5000000  -1.8328446), wk =   0.0625000
        k(    8) = (   0.0000000   0.0000000   0.9164223), wk =   0.0625000
        k(    9) = (   0.7500000   0.0000000  -0.4582111), wk =   0.2500000
        k(   10) = (   0.5000000   0.0000000   0.0000000), wk =   0.1250000
        k(   11) = (   0.7500000  -0.7500000  -1.8328446), wk =   0.1250000
        k(   12) = (   0.5000000  -0.5000000  -0.9164223), wk =   0.0625000
        k(   13) = (   0.0000000   0.0000000  -1.8328446), wk =   0.0312500

     Dense  grid:    17905 G-vectors     FFT dimensions: (  40,  40,  40)

     Estimated max dynamical RAM per process >       2.52 MB

     Estimated total dynamical RAM >     292.26 MB

     Initial potential from superposition of free atoms

     starting charge      27.9964, renormalised to      28.0000
     Starting wfcs are   18 randomized atomic wfcs

     total cpu time spent up to now is        0.7 secs

     per-process dynamical memory:    10.2 Mb

     Self-consistent Calculation

     iteration #  1     ecut=    51.00 Ry     beta= 0.70
     Davidson diagonalization with overlap
     ethr =  1.00E-02,  avg # of iterations =  1.8

     Threshold (ethr) on eigenvalues was too large:
     Diagonalizing with lowered threshold

     Davidson diagonalization with overlap
     ethr =  2.45E-05,  avg # of iterations =  3.8

     negative rho (up, down):  3.046E-05 0.000E+00

     total cpu time spent up to now is        0.8 secs

     total energy              =    -325.56020729 Ry
     estimated scf accuracy    <       0.00700275 Ry

     iteration #  2     ecut=    51.00 Ry     beta= 0.70
     Davidson diagonalization with overlap
     ethr =  2.50E-05,  avg # of iterations =  2.0

     negative rho (up, down):  4.644E-05 0.000E+00

     total cpu time spent up to now is        0.9 secs

     total energy              =    -325.56121039 Ry
     estimated scf accuracy    <       0.00056490 Ry

     iteration #  3     ecut=    51.00 Ry     beta= 0.70
     Davidson diagonalization with overlap
     ethr =  2.02E-06,  avg # of iterations =  2.2

     negative rho (up, down):  5.604E-05 0.000E+00

     total cpu time spent up to now is        0.9 secs

     total energy              =    -325.56127565 Ry
     estimated scf accuracy    <       0.00004360 Ry

     iteration #  4     ecut=    51.00 Ry     beta= 0.70
     Davidson diagonalization with overlap
     ethr =  1.56E-07,  avg # of iterations =  3.0

     negative rho (up, down):  5.612E-05 0.000E+00

     total cpu time spent up to now is        0.9 secs

     total energy              =    -325.56128173 Ry
     estimated scf accuracy    <       0.00000048 Ry

     iteration #  5     ecut=    51.00 Ry     beta= 0.70
     Davidson diagonalization with overlap
     ethr =  1.70E-09,  avg # of iterations =  3.5

     negative rho (up, down):  5.611E-05 0.000E+00

     total cpu time spent up to now is        0.9 secs

     End of self-consistent calculation

          k = 0.0000 0.0000 0.0000 (  2255 PWs)   bands (ev):

   -10.7995 -10.7164 -10.6733 -10.6608 -10.5113 -10.5113 -10.5000 -10.5000
   -10.4083 -10.2953  -0.3478   7.1598   8.8394   8.8394

          k =-0.2500 0.0000 0.4582 (  2252 PWs)   bands (ev):

   -10.7636 -10.6359 -10.6306 -10.5895 -10.5670 -10.5257 -10.5172 -10.4941
   -10.4293 -10.3299   0.8904   6.5827   9.0439  11.2828

          k = 0.5000 0.0000-0.9164 (  2238 PWs)   bands (ev):

   -10.7241 -10.6534 -10.6369 -10.5974 -10.5632 -10.5603 -10.4616 -10.4139
   -10.4102 -10.3634   3.8523   5.3951   8.4866   9.1142

          k =-0.2500 0.2500 0.9164 (  2251 PWs)   bands (ev):

   -10.7380 -10.6502 -10.6069 -10.5900 -10.5880 -10.5373 -10.4785 -10.4593
   -10.3824 -10.3543   3.7377   6.0499   7.1232   9.1082

          k = 0.5000 0.2500-0.4582 (  2244 PWs)   bands (ev):

   -10.7067 -10.6471 -10.6434 -10.5894 -10.5725 -10.5150 -10.4816 -10.4737
   -10.4563 -10.3917   2.0027   4.1402   9.3952  10.6281

          k = 0.2500 0.2500 0.0000 (  2258 PWs)   bands (ev):

   -10.7495 -10.7232 -10.6877 -10.6313 -10.5379 -10.4904 -10.4889 -10.4806
   -10.4377 -10.3440   0.2168   4.5869   9.5062  10.5373

          k = 0.5000-0.5000-1.8328 (  2246 PWs)   bands (ev):

   -10.7195 -10.7195 -10.6318 -10.6318 -10.5381 -10.5381 -10.4664 -10.4664
   -10.4269 -10.4269   1.8999   1.8999  11.4184  11.4184

          k = 0.0000 0.0000 0.9164 (  2247 PWs)   bands (ev):

   -10.7296 -10.6217 -10.6217 -10.6025 -10.5573 -10.5573 -10.5333 -10.4400
   -10.3848 -10.3388   3.2946   7.1419   7.9729   9.4588

          k = 0.7500 0.0000-0.4582 (  2243 PWs)   bands (ev):

   -10.6939 -10.6515 -10.5888 -10.5796 -10.5449 -10.5282 -10.5172 -10.4809
   -10.4742 -10.4178   3.0218   4.3587   7.2619   8.4572

          k = 0.5000 0.0000 0.0000 (  2243 PWs)   bands (ev):

   -10.7352 -10.7052 -10.6935 -10.5998 -10.5151 -10.5075 -10.5035 -10.4605
   -10.4587 -10.3888   0.7793   4.3533   7.0799  10.7925

          k = 0.7500-0.7500-1.8328 (  2218 PWs)   bands (ev):

   -10.7260 -10.7260 -10.5939 -10.5939 -10.5301 -10.5301 -10.4805 -10.4805
   -10.4516 -10.4516   2.4042   2.4042   7.9916   7.9916

          k = 0.5000-0.5000-0.9164 (  2252 PWs)   bands (ev):

   -10.7021 -10.7021 -10.6318 -10.6318 -10.5243 -10.5243 -10.4302 -10.4302
   -10.4031 -10.4031   4.8047   4.8047   7.2813   7.2813

          k = 0.0000 0.0000-1.8328 (  2206 PWs)   bands (ev):

   -10.7288 -10.7288 -10.5298 -10.5298 -10.5197 -10.5197 -10.5081 -10.5081
   -10.4952 -10.4952   3.2418   3.2418   6.0121   6.0121

     highest occupied level (ev):    11.4184

!    total energy              =    -325.56128195 Ry
     estimated scf accuracy    <       0.00000003 Ry

     The total energy is the sum of the following terms:
     one-electron contribution =    -107.29419628 Ry
     hartree contribution      =      74.46899362 Ry
     xc contribution           =     -95.22077604 Ry
     ewald contribution        =    -197.51530325 Ry

     convergence has been achieved in   5 iterations

     Writing all to output data dir ./beta-sn-scf/betatin.save/ :
     XML data file, charge density, pseudopotentials, collected wavefunctions

     init_run     :      0.37s CPU      0.42s WALL (       1 calls)
     electrons    :      0.18s CPU      0.24s WALL (       1 calls)

     Called by init_run:
     wfcinit      :      0.02s CPU      0.03s WALL (       1 calls)
     potinit      :      0.01s CPU      0.02s WALL (       1 calls)
     hinit0       :      0.32s CPU      0.34s WALL (       1 calls)

     Called by electrons:
     c_bands      :      0.11s CPU      0.13s WALL (       6 calls)
     sum_band     :      0.03s CPU      0.04s WALL (       6 calls)
     v_of_rho     :      0.02s CPU      0.03s WALL (       6 calls)
     newd         :      0.00s CPU      0.01s WALL (       6 calls)
     mix_rho      :      0.00s CPU      0.00s WALL (       6 calls)

     Called by c_bands:
     init_us_2    :      0.00s CPU      0.00s WALL (      26 calls)
     cegterg      :      0.10s CPU      0.11s WALL (      12 calls)

     Called by *egterg:
     cdiaghg      :      0.01s CPU      0.02s WALL (      50 calls)
     h_psi        :      0.09s CPU      0.10s WALL (      54 calls)
     s_psi        :      0.00s CPU      0.00s WALL (      54 calls)
     g_psi        :      0.00s CPU      0.00s WALL (      40 calls)

     Called by h_psi:
     h_psi:calbec :      0.01s CPU      0.01s WALL (      54 calls)
     vloc_psi     :      0.08s CPU      0.09s WALL (      54 calls)
     add_vuspsi   :      0.00s CPU      0.00s WALL (      54 calls)

     General routines
     calbec       :      0.00s CPU      0.01s WALL (      66 calls)
     fft          :      0.30s CPU      0.31s WALL (      67 calls)
     ffts         :      0.00s CPU      0.00s WALL (       6 calls)
     fftw         :      0.09s CPU      0.10s WALL (    1092 calls)

     Parallel routines

     PWSCF        :      0.89s CPU      1.16s WALL


   This run was terminated on:  16: 9: 7   5Feb2026            

=------------------------------------------------------------------------------=
   JOB DONE.
=------------------------------------------------------------------------------=
