
     Program PWSCF v.7.3.1 starts on  5Feb2026 at 16: 9:49 

     This program is part of the open-source Quantum ESPRESSO suite
     for quantum simulation of materials; please cite
         "P. Giannozzi et al., J. Phys.:Condens. Matter 21 395502 (2009);
         "P. Giannozzi et al., J. Phys.:Condens. Matter 29 465901 (2017);
         "P. Giannozzi et al., J. Chem. Phys. 152 154105 (2020);
          URL http://www.quantum-espresso.org", 
     in publications or presentations arising from this work. More details at
     http://www.quantum-espresso.org/quote

     Parallel version (MPI), running on   128 processors

     MPI processes distributed on     1 nodes
     241330 MiB available memory on the printing compute node when the environment starts

     Waiting for input...
     Reading input from standard input

     Current dimensions of program PWSCF are:
     Max number of different atomic species (ntypx) = 10
     Max number of k-points (npk) =  40000
     Max angular momentum in pseudopotentials (lmaxx) =  4

     K-points division:     npool     =       8
     R & G space division:  proc/nbgrp/npool/nimage =      16
     Subspace diagonalization in iterative solution of the eigenvalue problem:
     a serial algorithm will be used


     Parallelization info
     --------------------
     sticks:   dense  smooth     PW     G-vecs:    dense   smooth      PW
     Min          75      75     25                 1257     1257     247
     Max          76      76     26                 1259     1259     249
     Sum        1207    1207    411                20131    20131    3965

     Using Slab Decomposition



     bravais-lattice index     =            7
     lattice parameter (alat)  =      11.0200  a.u.
     unit-cell volume          =     365.0809 (a.u.)^3
     number of atoms/cell      =            2
     number of atomic types    =            1
     number of electrons       =        28.00
     number of Kohn-Sham states=           14
     kinetic-energy cutoff     =      55.0000  Ry
     charge density cutoff     =     220.0000  Ry
     scf convergence threshold =      1.0E-07
     mixing beta               =       0.7000
     number of iterations used =            8  plain     mixing
     Exchange-correlation=  SLA  PW   GGX  GGC
                           (   1   4   2   2   0   0   0)

     celldm(1)=  11.020000  celldm(2)=   0.000000  celldm(3)=   0.545600
     celldm(4)=   0.000000  celldm(5)=   0.000000  celldm(6)=   0.000000

     crystal axes: (cart. coord. in units of alat)
               a(1) = (   0.500000  -0.500000   0.272800 )  
               a(2) = (   0.500000   0.500000   0.272800 )  
               a(3) = (  -0.500000  -0.500000   0.272800 )  

     reciprocal axes: (cart. coord. in units 2 pi/alat)
               b(1) = (  1.000000 -1.000000  0.000000 )  
               b(2) = (  0.000000  1.000000  1.832845 )  
               b(3) = ( -1.000000  0.000000  1.832845 )  


     PseudoPot. # 1 for Sn read from file:
     ./Sn.pw91-n-van.UPF
     MD5 check sum: a38d2a872edd1a4efd76c0a1a38f7031
     Pseudo is Ultrasoft + core correction, Zval = 14.0
     Generated by new atomic code, or converted to UPF format
     Using radial grid of  891 points,  6 beta functions with: 
                l(1) =   0
                l(2) =   0
                l(3) =   1
                l(4) =   1
                l(5) =   2
                l(6) =   2
     Q(r) pseudized with  8 coefficients,  rinner =    1.100   1.100   1.100
                                                       1.100   1.100

     atomic species   valence    mass     pseudopotential
     Sn               14.00   118.70000     Sn( 1.00)

     16 Sym. Ops., with inversion, found (12 have fractional translation)



   Cartesian axes

     site n.     atom                  positions (alat units)
         1        Sn     tau(   1) = (   0.0000000  -0.2500000   0.0682000  )
         2        Sn     tau(   2) = (   0.0000000   0.2500000  -0.0682000  )

     number of k points=    13
                       cart. coord. in units 2pi/alat
        k(    1) = (   0.0000000   0.0000000   0.0000000), wk =   0.0312500
        k(    2) = (  -0.2500000   0.0000000   0.4582111), wk =   0.2500000
        k(    3) = (   0.5000000   0.0000000  -0.9164223), wk =   0.1250000
        k(    4) = (  -0.2500000   0.2500000   0.9164223), wk =   0.2500000
        k(    5) = (   0.5000000   0.2500000  -0.4582111), wk =   0.5000000
        k(    6) = (   0.2500000   0.2500000   0.0000000), wk =   0.1250000
        k(    7) = (   0.5000000  -0.5000000  -1.8328446), wk =   0.0625000
        k(    8) = (   0.0000000   0.0000000   0.9164223), wk =   0.0625000
        k(    9) = (   0.7500000   0.0000000  -0.4582111), wk =   0.2500000
        k(   10) = (   0.5000000   0.0000000   0.0000000), wk =   0.1250000
        k(   11) = (   0.7500000  -0.7500000  -1.8328446), wk =   0.1250000
        k(   12) = (   0.5000000  -0.5000000  -0.9164223), wk =   0.0625000
        k(   13) = (   0.0000000   0.0000000  -1.8328446), wk =   0.0312500

     Dense  grid:    20131 G-vectors     FFT dimensions: (  40,  40,  40)

     Estimated max dynamical RAM per process >       2.70 MB

     Estimated total dynamical RAM >     310.94 MB

     Initial potential from superposition of free atoms

     starting charge      27.9964, renormalised to      28.0000
     Starting wfcs are   18 randomized atomic wfcs

     total cpu time spent up to now is        0.7 secs

     per-process dynamical memory:    10.1 Mb

     Self-consistent Calculation

     iteration #  1     ecut=    55.00 Ry     beta= 0.70
     Davidson diagonalization with overlap
     ethr =  1.00E-02,  avg # of iterations =  1.8

     Threshold (ethr) on eigenvalues was too large:
     Diagonalizing with lowered threshold

     Davidson diagonalization with overlap
     ethr =  2.44E-05,  avg # of iterations =  3.8

     total cpu time spent up to now is        0.8 secs

     total energy              =    -325.56289112 Ry
     estimated scf accuracy    <       0.00697428 Ry

     iteration #  2     ecut=    55.00 Ry     beta= 0.70
     Davidson diagonalization with overlap
     ethr =  2.49E-05,  avg # of iterations =  2.0

     negative rho (up, down):  9.494E-07 0.000E+00

     total cpu time spent up to now is        0.8 secs

     total energy              =    -325.56387476 Ry
     estimated scf accuracy    <       0.00056236 Ry

     iteration #  3     ecut=    55.00 Ry     beta= 0.70
     Davidson diagonalization with overlap
     ethr =  2.01E-06,  avg # of iterations =  2.4

     negative rho (up, down):  1.157E-05 0.000E+00

     total cpu time spent up to now is        0.9 secs

     total energy              =    -325.56394348 Ry
     estimated scf accuracy    <       0.00004365 Ry

     iteration #  4     ecut=    55.00 Ry     beta= 0.70
     Davidson diagonalization with overlap
     ethr =  1.56E-07,  avg # of iterations =  2.5

     negative rho (up, down):  1.159E-05 0.000E+00

     total cpu time spent up to now is        0.9 secs

     total energy              =    -325.56394867 Ry
     estimated scf accuracy    <       0.00000024 Ry

     iteration #  5     ecut=    55.00 Ry     beta= 0.70
     Davidson diagonalization with overlap
     ethr =  8.69E-10,  avg # of iterations =  4.1

     negative rho (up, down):  1.156E-05 0.000E+00

     total cpu time spent up to now is        0.9 secs

     End of self-consistent calculation

          k = 0.0000 0.0000 0.0000 (  2467 PWs)   bands (ev):

   -10.7990 -10.7160 -10.6732 -10.6608 -10.5115 -10.5115 -10.5005 -10.5005
   -10.4087 -10.2949  -0.3468   7.1606   8.8404   8.8404

          k =-0.2500 0.0000 0.4582 (  2515 PWs)   bands (ev):

   -10.7633 -10.6362 -10.6312 -10.5900 -10.5677 -10.5263 -10.5177 -10.4945
   -10.4299 -10.3299   0.8914   6.5835   9.0449  11.2836

          k = 0.5000 0.0000-0.9164 (  2524 PWs)   bands (ev):

   -10.7241 -10.6540 -10.6374 -10.5975 -10.5643 -10.5608 -10.4623 -10.4145
   -10.4108 -10.3636   3.8533   5.3961   8.4875   9.1148

          k =-0.2500 0.2500 0.9164 (  2514 PWs)   bands (ev):

   -10.7380 -10.6506 -10.6072 -10.5904 -10.5885 -10.5378 -10.4788 -10.4599
   -10.3829 -10.3547   3.7387   6.0509   7.1242   9.1090

          k = 0.5000 0.2500-0.4582 (  2522 PWs)   bands (ev):

   -10.7066 -10.6476 -10.6438 -10.5900 -10.5730 -10.5156 -10.4820 -10.4743
   -10.4570 -10.3921   2.0037   4.1411   9.3963  10.6291

          k = 0.2500 0.2500 0.0000 (  2508 PWs)   bands (ev):

   -10.7493 -10.7234 -10.6882 -10.6318 -10.5383 -10.4906 -10.4890 -10.4813
   -10.4382 -10.3443   0.2178   4.5878   9.5071  10.5385

          k = 0.5000-0.5000-1.8328 (  2518 PWs)   bands (ev):

   -10.7200 -10.7200 -10.6317 -10.6317 -10.5387 -10.5387 -10.4667 -10.4667
   -10.4279 -10.4279   1.9009   1.9009  11.4193  11.4193

          k = 0.0000 0.0000 0.9164 (  2527 PWs)   bands (ev):

   -10.7292 -10.6226 -10.6226 -10.6028 -10.5580 -10.5580 -10.5336 -10.4408
   -10.3851 -10.3390   3.2956   7.1428   7.9736   9.4600

          k = 0.7500 0.0000-0.4582 (  2513 PWs)   bands (ev):

   -10.6937 -10.6515 -10.5893 -10.5802 -10.5460 -10.5287 -10.5177 -10.4815
   -10.4745 -10.4181   3.0227   4.3596   7.2632   8.4584

          k = 0.5000 0.0000 0.0000 (  2511 PWs)   bands (ev):

   -10.7351 -10.7059 -10.6935 -10.6004 -10.5154 -10.5079 -10.5042 -10.4612
   -10.4592 -10.3892   0.7803   4.3542   7.0812  10.7937

          k = 0.7500-0.7500-1.8328 (  2516 PWs)   bands (ev):

   -10.7263 -10.7263 -10.5940 -10.5940 -10.5310 -10.5310 -10.4811 -10.4811
   -10.4524 -10.4524   2.4051   2.4051   7.9928   7.9928

          k = 0.5000-0.5000-0.9164 (  2504 PWs)   bands (ev):

   -10.7025 -10.7025 -10.6320 -10.6320 -10.5247 -10.5247 -10.4301 -10.4301
   -10.4037 -10.4037   4.8057   4.8057   7.2822   7.2822

          k = 0.0000 0.0000-1.8328 (  2532 PWs)   bands (ev):

   -10.7291 -10.7291 -10.5300 -10.5300 -10.5211 -10.5211 -10.5088 -10.5088
   -10.4961 -10.4961   3.2426   3.2426   6.0134   6.0134

     highest occupied level (ev):    11.4193

!    total energy              =    -325.56394887 Ry
     estimated scf accuracy    <          6.2E-09 Ry

     The total energy is the sum of the following terms:
     one-electron contribution =    -107.29759709 Ry
     hartree contribution      =      74.47053494 Ry
     xc contribution           =     -95.22158350 Ry
     ewald contribution        =    -197.51530322 Ry

     convergence has been achieved in   5 iterations

     Writing all to output data dir ./beta-sn-scf/betatin.save/ :
     XML data file, charge density, pseudopotentials, collected wavefunctions

     init_run     :      0.38s CPU      0.42s WALL (       1 calls)
     electrons    :      0.19s CPU      0.25s WALL (       1 calls)

     Called by init_run:
     wfcinit      :      0.01s CPU      0.02s WALL (       1 calls)
     potinit      :      0.01s CPU      0.02s WALL (       1 calls)
     hinit0       :      0.33s CPU      0.34s WALL (       1 calls)

     Called by electrons:
     c_bands      :      0.13s CPU      0.14s WALL (       6 calls)
     sum_band     :      0.03s CPU      0.04s WALL (       6 calls)
     v_of_rho     :      0.03s CPU      0.03s WALL (       6 calls)
     newd         :      0.01s CPU      0.01s WALL (       6 calls)
     mix_rho      :      0.00s CPU      0.00s WALL (       6 calls)

     Called by c_bands:
     init_us_2    :      0.00s CPU      0.00s WALL (      26 calls)
     cegterg      :      0.11s CPU      0.12s WALL (      12 calls)

     Called by *egterg:
     cdiaghg      :      0.02s CPU      0.02s WALL (      51 calls)
     h_psi        :      0.09s CPU      0.10s WALL (      55 calls)
     s_psi        :      0.00s CPU      0.00s WALL (      55 calls)
     g_psi        :      0.00s CPU      0.00s WALL (      41 calls)

     Called by h_psi:
     h_psi:calbec :      0.00s CPU      0.01s WALL (      55 calls)
     vloc_psi     :      0.09s CPU      0.09s WALL (      55 calls)
     add_vuspsi   :      0.00s CPU      0.00s WALL (      55 calls)

     General routines
     calbec       :      0.01s CPU      0.01s WALL (      67 calls)
     fft          :      0.30s CPU      0.31s WALL (      67 calls)
     ffts         :      0.00s CPU      0.00s WALL (       6 calls)
     fftw         :      0.09s CPU      0.10s WALL (    1104 calls)

     Parallel routines

     PWSCF        :      0.78s CPU      1.06s WALL


   This run was terminated on:  16: 9:50   5Feb2026            

=------------------------------------------------------------------------------=
   JOB DONE.
=------------------------------------------------------------------------------=
