
     Program PWSCF v.7.3.1 starts on  5Feb2026 at 16:31:19 

     This program is part of the open-source Quantum ESPRESSO suite
     for quantum simulation of materials; please cite
         "P. Giannozzi et al., J. Phys.:Condens. Matter 21 395502 (2009);
         "P. Giannozzi et al., J. Phys.:Condens. Matter 29 465901 (2017);
         "P. Giannozzi et al., J. Chem. Phys. 152 154105 (2020);
          URL http://www.quantum-espresso.org", 
     in publications or presentations arising from this work. More details at
     http://www.quantum-espresso.org/quote

     Parallel version (MPI), running on   128 processors

     MPI processes distributed on     1 nodes
     241258 MiB available memory on the printing compute node when the environment starts

     Waiting for input...
     Reading input from standard input

     Current dimensions of program PWSCF are:
     Max number of different atomic species (ntypx) = 10
     Max number of k-points (npk) =  40000
     Max angular momentum in pseudopotentials (lmaxx) =  4

     K-points division:     npool     =       4
     R & G space division:  proc/nbgrp/npool/nimage =      32
     Subspace diagonalization in iterative solution of the eigenvalue problem:
     a serial algorithm will be used


     Parallelization info
     --------------------
     sticks:   dense  smooth     PW     G-vecs:    dense   smooth      PW
     Min         118     118     35                 3505     3505     571
     Max         119     119     36                 3507     3507     574
     Sum        3803    3803   1137               112197   112197   18313

     Using Slab Decomposition



     bravais-lattice index     =            7
     lattice parameter (alat)  =      11.0200  a.u.
     unit-cell volume          =     365.0809 (a.u.)^3
     number of atoms/cell      =            2
     number of atomic types    =            1
     number of electrons       =        28.00
     number of Kohn-Sham states=           14
     kinetic-energy cutoff     =     173.0000  Ry
     charge density cutoff     =     692.0000  Ry
     scf convergence threshold =      1.0E-07
     mixing beta               =       0.7000
     number of iterations used =            8  plain     mixing
     Exchange-correlation=  SLA  PW   GGX  GGC
                           (   1   4   2   2   0   0   0)

     celldm(1)=  11.020000  celldm(2)=   0.000000  celldm(3)=   0.545600
     celldm(4)=   0.000000  celldm(5)=   0.000000  celldm(6)=   0.000000

     crystal axes: (cart. coord. in units of alat)
               a(1) = (   0.500000  -0.500000   0.272800 )  
               a(2) = (   0.500000   0.500000   0.272800 )  
               a(3) = (  -0.500000  -0.500000   0.272800 )  

     reciprocal axes: (cart. coord. in units 2 pi/alat)
               b(1) = (  1.000000 -1.000000  0.000000 )  
               b(2) = (  0.000000  1.000000  1.832845 )  
               b(3) = ( -1.000000  0.000000  1.832845 )  


     PseudoPot. # 1 for Sn read from file:
     ./Sn.pw91-n-van.UPF
     MD5 check sum: a38d2a872edd1a4efd76c0a1a38f7031
     Pseudo is Ultrasoft + core correction, Zval = 14.0
     Generated by new atomic code, or converted to UPF format
     Using radial grid of  891 points,  6 beta functions with: 
                l(1) =   0
                l(2) =   0
                l(3) =   1
                l(4) =   1
                l(5) =   2
                l(6) =   2
     Q(r) pseudized with  8 coefficients,  rinner =    1.100   1.100   1.100
                                                       1.100   1.100

     atomic species   valence    mass     pseudopotential
     Sn               14.00   118.70000     Sn( 1.00)

     16 Sym. Ops., with inversion, found (12 have fractional translation)



   Cartesian axes

     site n.     atom                  positions (alat units)
         1        Sn     tau(   1) = (   0.0000000  -0.2500000   0.0682000  )
         2        Sn     tau(   2) = (   0.0000000   0.2500000  -0.0682000  )

     number of k points=    13
                       cart. coord. in units 2pi/alat
        k(    1) = (   0.0000000   0.0000000   0.0000000), wk =   0.0312500
        k(    2) = (  -0.2500000   0.0000000   0.4582111), wk =   0.2500000
        k(    3) = (   0.5000000   0.0000000  -0.9164223), wk =   0.1250000
        k(    4) = (  -0.2500000   0.2500000   0.9164223), wk =   0.2500000
        k(    5) = (   0.5000000   0.2500000  -0.4582111), wk =   0.5000000
        k(    6) = (   0.2500000   0.2500000   0.0000000), wk =   0.1250000
        k(    7) = (   0.5000000  -0.5000000  -1.8328446), wk =   0.0625000
        k(    8) = (   0.0000000   0.0000000   0.9164223), wk =   0.0625000
        k(    9) = (   0.7500000   0.0000000  -0.4582111), wk =   0.2500000
        k(   10) = (   0.5000000   0.0000000   0.0000000), wk =   0.1250000
        k(   11) = (   0.7500000  -0.7500000  -1.8328446), wk =   0.1250000
        k(   12) = (   0.5000000  -0.5000000  -0.9164223), wk =   0.0625000
        k(   13) = (   0.0000000   0.0000000  -1.8328446), wk =   0.0312500

     Dense  grid:   112197 G-vectors     FFT dimensions: (  72,  72,  72)

     Estimated max dynamical RAM per process >       7.90 MB

     Estimated total dynamical RAM >     928.71 MB

     Initial potential from superposition of free atoms

     starting charge      27.9964, renormalised to      28.0000
     Starting wfcs are   18 randomized atomic wfcs

     total cpu time spent up to now is        1.1 secs

     per-process dynamical memory:    13.2 Mb

     Self-consistent Calculation

     iteration #  1     ecut=   173.00 Ry     beta= 0.70
     Davidson diagonalization with overlap
     ethr =  1.00E-02,  avg # of iterations =  2.0

     Threshold (ethr) on eigenvalues was too large:
     Diagonalizing with lowered threshold

     Davidson diagonalization with overlap
     ethr =  2.31E-05,  avg # of iterations =  3.8

     total cpu time spent up to now is        1.4 secs

     total energy              =    -325.58412083 Ry
     estimated scf accuracy    <       0.00680470 Ry

     iteration #  2     ecut=   173.00 Ry     beta= 0.70
     Davidson diagonalization with overlap
     ethr =  2.43E-05,  avg # of iterations =  2.0

     total cpu time spent up to now is        1.6 secs

     total energy              =    -325.58576436 Ry
     estimated scf accuracy    <       0.00048669 Ry

     iteration #  3     ecut=   173.00 Ry     beta= 0.70
     Davidson diagonalization with overlap
     ethr =  1.74E-06,  avg # of iterations =  2.0

     total cpu time spent up to now is        1.7 secs

     total energy              =    -325.58587334 Ry
     estimated scf accuracy    <       0.00003259 Ry

     iteration #  4     ecut=   173.00 Ry     beta= 0.70
     Davidson diagonalization with overlap
     ethr =  1.16E-07,  avg # of iterations =  3.2

     total cpu time spent up to now is        1.9 secs

     total energy              =    -325.58587889 Ry
     estimated scf accuracy    <       0.00000083 Ry

     iteration #  5     ecut=   173.00 Ry     beta= 0.70
     Davidson diagonalization with overlap
     ethr =  2.97E-09,  avg # of iterations =  3.9

     total cpu time spent up to now is        2.0 secs

     total energy              =    -325.58587905 Ry
     estimated scf accuracy    <       0.00000047 Ry

     iteration #  6     ecut=   173.00 Ry     beta= 0.70
     Davidson diagonalization with overlap
     ethr =  1.69E-09,  avg # of iterations =  2.5

     total cpu time spent up to now is        2.2 secs

     End of self-consistent calculation

          k = 0.0000 0.0000 0.0000 ( 14009 PWs)   bands (ev):

   -10.8101 -10.7275 -10.6837 -10.6723 -10.5222 -10.5222 -10.5112 -10.5112
   -10.4193 -10.3072  -0.3471   7.1618   8.8398   8.8398

          k =-0.2500 0.0000 0.4582 ( 14048 PWs)   bands (ev):

   -10.7743 -10.6465 -10.6418 -10.6006 -10.5781 -10.5369 -10.5284 -10.5055
   -10.4403 -10.3418   0.8912   6.5843   9.0440  11.2833

          k = 0.5000 0.0000-0.9164 ( 14024 PWs)   bands (ev):

   -10.7349 -10.6645 -10.6478 -10.6083 -10.5742 -10.5712 -10.4726 -10.4255
   -10.4217 -10.3753   3.8535   5.3959   8.4877   9.1144

          k =-0.2500 0.2500 0.9164 ( 14003 PWs)   bands (ev):

   -10.7488 -10.6611 -10.6178 -10.6009 -10.5989 -10.5484 -10.4896 -10.4702
   -10.3938 -10.3662   3.7389   6.0513   7.1234   9.1085

          k = 0.5000 0.2500-0.4582 ( 14019 PWs)   bands (ev):

   -10.7176 -10.6581 -10.6545 -10.6005 -10.5834 -10.5262 -10.4926 -10.4849
   -10.4677 -10.4034   2.0036   4.1413   9.3956  10.6281

          k = 0.2500 0.2500 0.0000 ( 14071 PWs)   bands (ev):

   -10.7603 -10.7344 -10.6991 -10.6420 -10.5490 -10.5015 -10.4998 -10.4919
   -10.4487 -10.3559   0.2176   4.5880   9.5064  10.5379

          k = 0.5000-0.5000-1.8328 ( 14040 PWs)   bands (ev):

   -10.7307 -10.7307 -10.6429 -10.6429 -10.5489 -10.5489 -10.4776 -10.4776
   -10.4385 -10.4385   1.9008   1.9008  11.4183  11.4183

          k = 0.0000 0.0000 0.9164 ( 14021 PWs)   bands (ev):

   -10.7405 -10.6328 -10.6328 -10.6134 -10.5683 -10.5683 -10.5443 -10.4510
   -10.3963 -10.3506   3.2956   7.1435   7.9732   9.4589

          k = 0.7500 0.0000-0.4582 ( 14023 PWs)   bands (ev):

   -10.7048 -10.6625 -10.5999 -10.5905 -10.5559 -10.5393 -10.5285 -10.4918
   -10.4857 -10.4295   3.0228   4.3600   7.2617   8.4574

          k = 0.5000 0.0000 0.0000 ( 14055 PWs)   bands (ev):

   -10.7462 -10.7166 -10.7046 -10.6105 -10.5265 -10.5185 -10.5147 -10.4719
   -10.4696 -10.4007   0.7801   4.3546   7.0799  10.7927

          k = 0.7500-0.7500-1.8328 ( 14024 PWs)   bands (ev):

   -10.7372 -10.7372 -10.6051 -10.6051 -10.5411 -10.5411 -10.4918 -10.4918
   -10.4631 -10.4631   2.4051   2.4051   7.9917   7.9917

          k = 0.5000-0.5000-0.9164 ( 14024 PWs)   bands (ev):

   -10.7130 -10.7130 -10.6426 -10.6426 -10.5352 -10.5352 -10.4416 -10.4416
   -10.4144 -10.4144   4.8061   4.8061   7.2812   7.2812

          k = 0.0000 0.0000-1.8328 ( 14012 PWs)   bands (ev):

   -10.7400 -10.7400 -10.5415 -10.5415 -10.5307 -10.5307 -10.5192 -10.5192
   -10.5066 -10.5066   3.2429   3.2429   6.0120   6.0120

     highest occupied level (ev):    11.4183

!    total energy              =    -325.58587908 Ry
     estimated scf accuracy    <       0.00000001 Ry

     The total energy is the sum of the following terms:
     one-electron contribution =    -107.32464922 Ry
     hartree contribution      =      74.47645570 Ry
     xc contribution           =     -95.22238236 Ry
     ewald contribution        =    -197.51530320 Ry

     convergence has been achieved in   6 iterations

     Writing all to output data dir ./beta-sn-scf/betatin.save/ :
     XML data file, charge density, pseudopotentials, collected wavefunctions

     init_run     :      0.74s CPU      0.80s WALL (       1 calls)
     electrons    :      0.99s CPU      1.09s WALL (       1 calls)

     Called by init_run:
     wfcinit      :      0.06s CPU      0.07s WALL (       1 calls)
     potinit      :      0.02s CPU      0.04s WALL (       1 calls)
     hinit0       :      0.59s CPU      0.60s WALL (       1 calls)

     Called by electrons:
     c_bands      :      0.66s CPU      0.69s WALL (       7 calls)
     sum_band     :      0.17s CPU      0.19s WALL (       7 calls)
     v_of_rho     :      0.09s CPU      0.10s WALL (       7 calls)
     newd         :      0.04s CPU      0.05s WALL (       7 calls)
     mix_rho      :      0.01s CPU      0.01s WALL (       7 calls)

     Called by c_bands:
     init_us_2    :      0.01s CPU      0.01s WALL (      60 calls)
     cegterg      :      0.61s CPU      0.63s WALL (      28 calls)

     Called by *egterg:
     cdiaghg      :      0.03s CPU      0.04s WALL (     110 calls)
     h_psi        :      0.58s CPU      0.60s WALL (     118 calls)
     s_psi        :      0.01s CPU      0.01s WALL (     118 calls)
     g_psi        :      0.00s CPU      0.00s WALL (      86 calls)

     Called by h_psi:
     h_psi:calbec :      0.02s CPU      0.02s WALL (     118 calls)
     vloc_psi     :      0.55s CPU      0.57s WALL (     118 calls)
     add_vuspsi   :      0.01s CPU      0.01s WALL (     118 calls)

     General routines
     calbec       :      0.02s CPU      0.02s WALL (     146 calls)
     fft          :      0.60s CPU      0.60s WALL (      78 calls)
     ffts         :      0.00s CPU      0.00s WALL (       7 calls)
     fftw         :      0.59s CPU      0.61s WALL (    2462 calls)

     Parallel routines

     PWSCF        :      1.99s CPU      2.36s WALL


   This run was terminated on:  16:31:22   5Feb2026            

=------------------------------------------------------------------------------=
   JOB DONE.
=------------------------------------------------------------------------------=
