
     Program PWSCF v.7.3.1 starts on  5Feb2026 at 16: 7:57 

     This program is part of the open-source Quantum ESPRESSO suite
     for quantum simulation of materials; please cite
         "P. Giannozzi et al., J. Phys.:Condens. Matter 21 395502 (2009);
         "P. Giannozzi et al., J. Phys.:Condens. Matter 29 465901 (2017);
         "P. Giannozzi et al., J. Chem. Phys. 152 154105 (2020);
          URL http://www.quantum-espresso.org", 
     in publications or presentations arising from this work. More details at
     http://www.quantum-espresso.org/quote

     Parallel version (MPI), running on   128 processors

     MPI processes distributed on     1 nodes
     241386 MiB available memory on the printing compute node when the environment starts

     Waiting for input...
     Reading input from standard input

     Current dimensions of program PWSCF are:
     Max number of different atomic species (ntypx) = 10
     Max number of k-points (npk) =  40000
     Max angular momentum in pseudopotentials (lmaxx) =  4

     K-points division:     npool     =       8
     R & G space division:  proc/nbgrp/npool/nimage =      16
     Subspace diagonalization in iterative solution of the eigenvalue problem:
     a serial algorithm will be used


     Parallelization info
     --------------------
     sticks:   dense  smooth     PW     G-vecs:    dense   smooth      PW
     Min          59      59     20                  865      865     182
     Max          60      60     21                  867      867     184
     Sum         945     945    335                13857    13857    2931

     Using Slab Decomposition



     bravais-lattice index     =            7
     lattice parameter (alat)  =      11.0200  a.u.
     unit-cell volume          =     365.0809 (a.u.)^3
     number of atoms/cell      =            2
     number of atomic types    =            1
     number of electrons       =        28.00
     number of Kohn-Sham states=           14
     kinetic-energy cutoff     =      43.0000  Ry
     charge density cutoff     =     172.0000  Ry
     scf convergence threshold =      1.0E-07
     mixing beta               =       0.7000
     number of iterations used =            8  plain     mixing
     Exchange-correlation=  SLA  PW   GGX  GGC
                           (   1   4   2   2   0   0   0)

     celldm(1)=  11.020000  celldm(2)=   0.000000  celldm(3)=   0.545600
     celldm(4)=   0.000000  celldm(5)=   0.000000  celldm(6)=   0.000000

     crystal axes: (cart. coord. in units of alat)
               a(1) = (   0.500000  -0.500000   0.272800 )  
               a(2) = (   0.500000   0.500000   0.272800 )  
               a(3) = (  -0.500000  -0.500000   0.272800 )  

     reciprocal axes: (cart. coord. in units 2 pi/alat)
               b(1) = (  1.000000 -1.000000  0.000000 )  
               b(2) = (  0.000000  1.000000  1.832845 )  
               b(3) = ( -1.000000  0.000000  1.832845 )  


     PseudoPot. # 1 for Sn read from file:
     ./Sn.pw91-n-van.UPF
     MD5 check sum: a38d2a872edd1a4efd76c0a1a38f7031
     Pseudo is Ultrasoft + core correction, Zval = 14.0
     Generated by new atomic code, or converted to UPF format
     Using radial grid of  891 points,  6 beta functions with: 
                l(1) =   0
                l(2) =   0
                l(3) =   1
                l(4) =   1
                l(5) =   2
                l(6) =   2
     Q(r) pseudized with  8 coefficients,  rinner =    1.100   1.100   1.100
                                                       1.100   1.100

     atomic species   valence    mass     pseudopotential
     Sn               14.00   118.70000     Sn( 1.00)

     16 Sym. Ops., with inversion, found (12 have fractional translation)



   Cartesian axes

     site n.     atom                  positions (alat units)
         1        Sn     tau(   1) = (   0.0000000  -0.2500000   0.0682000  )
         2        Sn     tau(   2) = (   0.0000000   0.2500000  -0.0682000  )

     number of k points=    13
                       cart. coord. in units 2pi/alat
        k(    1) = (   0.0000000   0.0000000   0.0000000), wk =   0.0312500
        k(    2) = (  -0.2500000   0.0000000   0.4582111), wk =   0.2500000
        k(    3) = (   0.5000000   0.0000000  -0.9164223), wk =   0.1250000
        k(    4) = (  -0.2500000   0.2500000   0.9164223), wk =   0.2500000
        k(    5) = (   0.5000000   0.2500000  -0.4582111), wk =   0.5000000
        k(    6) = (   0.2500000   0.2500000   0.0000000), wk =   0.1250000
        k(    7) = (   0.5000000  -0.5000000  -1.8328446), wk =   0.0625000
        k(    8) = (   0.0000000   0.0000000   0.9164223), wk =   0.0625000
        k(    9) = (   0.7500000   0.0000000  -0.4582111), wk =   0.2500000
        k(   10) = (   0.5000000   0.0000000   0.0000000), wk =   0.1250000
        k(   11) = (   0.7500000  -0.7500000  -1.8328446), wk =   0.1250000
        k(   12) = (   0.5000000  -0.5000000  -0.9164223), wk =   0.0625000
        k(   13) = (   0.0000000   0.0000000  -1.8328446), wk =   0.0312500

     Dense  grid:    13857 G-vectors     FFT dimensions: (  36,  36,  36)

     Estimated max dynamical RAM per process >       2.13 MB

     Estimated total dynamical RAM >     249.04 MB

     Initial potential from superposition of free atoms

     starting charge      27.9964, renormalised to      28.0000
     Starting wfcs are   18 randomized atomic wfcs

     total cpu time spent up to now is        0.7 secs

     per-process dynamical memory:     9.6 Mb

     Self-consistent Calculation

     iteration #  1     ecut=    43.00 Ry     beta= 0.70
     Davidson diagonalization with overlap
     ethr =  1.00E-02,  avg # of iterations =  1.8

     Threshold (ethr) on eigenvalues was too large:
     Diagonalizing with lowered threshold

     Davidson diagonalization with overlap
     ethr =  2.48E-05,  avg # of iterations =  3.8

     total cpu time spent up to now is        0.8 secs

     total energy              =    -325.55919576 Ry
     estimated scf accuracy    <       0.00700734 Ry

     iteration #  2     ecut=    43.00 Ry     beta= 0.70
     Davidson diagonalization with overlap
     ethr =  2.50E-05,  avg # of iterations =  2.0

     total cpu time spent up to now is        0.8 secs

     total energy              =    -325.56021171 Ry
     estimated scf accuracy    <       0.00056697 Ry

     iteration #  3     ecut=    43.00 Ry     beta= 0.70
     Davidson diagonalization with overlap
     ethr =  2.02E-06,  avg # of iterations =  2.2

     total cpu time spent up to now is        0.8 secs

     total energy              =    -325.56027831 Ry
     estimated scf accuracy    <       0.00004365 Ry

     iteration #  4     ecut=    43.00 Ry     beta= 0.70
     Davidson diagonalization with overlap
     ethr =  1.56E-07,  avg # of iterations =  2.6

     total cpu time spent up to now is        0.8 secs

     total energy              =    -325.56028333 Ry
     estimated scf accuracy    <       0.00000029 Ry

     iteration #  5     ecut=    43.00 Ry     beta= 0.70
     Davidson diagonalization with overlap
     ethr =  1.05E-09,  avg # of iterations =  4.3

     total cpu time spent up to now is        0.9 secs

     End of self-consistent calculation

          k = 0.0000 0.0000 0.0000 (  1763 PWs)   bands (ev):

   -10.7982 -10.7158 -10.6727 -10.6604 -10.5105 -10.5105 -10.4995 -10.4995
   -10.4077 -10.2942  -0.3475   7.1597   8.8398   8.8398

          k =-0.2500 0.0000 0.4582 (  1739 PWs)   bands (ev):

   -10.7624 -10.6352 -10.6300 -10.5888 -10.5664 -10.5252 -10.5165 -10.4935
   -10.4287 -10.3288   0.8907   6.5827   9.0443  11.2830

          k = 0.5000 0.0000-0.9164 (  1730 PWs)   bands (ev):

   -10.7231 -10.6527 -10.6363 -10.5966 -10.5627 -10.5596 -10.4611 -10.4132
   -10.4095 -10.3626   3.8525   5.3953   8.4867   9.1143

          k =-0.2500 0.2500 0.9164 (  1743 PWs)   bands (ev):

   -10.7370 -10.6496 -10.6062 -10.5893 -10.5874 -10.5366 -10.4777 -10.4586
   -10.3817 -10.3535   3.7380   6.0501   7.1235   9.1084

          k = 0.5000 0.2500-0.4582 (  1727 PWs)   bands (ev):

   -10.7057 -10.6464 -10.6428 -10.5888 -10.5718 -10.5144 -10.4809 -10.4730
   -10.4557 -10.3908   2.0030   4.1404   9.3956  10.6284

          k = 0.2500 0.2500 0.0000 (  1742 PWs)   bands (ev):

   -10.7483 -10.7225 -10.6872 -10.6307 -10.5372 -10.4899 -10.4881 -10.4799
   -10.4370 -10.3428   0.2171   4.5871   9.5066  10.5377

          k = 0.5000-0.5000-1.8328 (  1732 PWs)   bands (ev):

   -10.7189 -10.7189 -10.6308 -10.6308 -10.5374 -10.5374 -10.4658 -10.4658
   -10.4262 -10.4262   1.9002   1.9002  11.4188  11.4188

          k = 0.0000 0.0000 0.9164 (  1742 PWs)   bands (ev):

   -10.7285 -10.6212 -10.6212 -10.6019 -10.5567 -10.5567 -10.5325 -10.4394
   -10.3841 -10.3378   3.2948   7.1420   7.9730   9.4593

          k = 0.7500 0.0000-0.4582 (  1744 PWs)   bands (ev):

   -10.6928 -10.6507 -10.5881 -10.5790 -10.5444 -10.5277 -10.5166 -10.4803
   -10.4734 -10.4169   3.0220   4.3589   7.2625   8.4577

          k = 0.5000 0.0000 0.0000 (  1736 PWs)   bands (ev):

   -10.7343 -10.7048 -10.6926 -10.5991 -10.5145 -10.5068 -10.5029 -10.4599
   -10.4580 -10.3880   0.7796   4.3535   7.0805  10.7930

          k = 0.7500-0.7500-1.8328 (  1748 PWs)   bands (ev):

   -10.7254 -10.7254 -10.5930 -10.5930 -10.5296 -10.5296 -10.4800 -10.4800
   -10.4510 -10.4510   2.4044   2.4044   7.9921   7.9921

          k = 0.5000-0.5000-0.9164 (  1736 PWs)   bands (ev):

   -10.7013 -10.7013 -10.6311 -10.6311 -10.5236 -10.5236 -10.4292 -10.4292
   -10.4024 -10.4024   4.8049   4.8049   7.2816   7.2816

          k = 0.0000 0.0000-1.8328 (  1710 PWs)   bands (ev):

   -10.7280 -10.7280 -10.5288 -10.5288 -10.5193 -10.5193 -10.5075 -10.5075
   -10.4947 -10.4947   3.2420   3.2420   6.0127   6.0127

     highest occupied level (ev):    11.4188

!    total energy              =    -325.56028363 Ry
     estimated scf accuracy    <          4.6E-09 Ry

     The total energy is the sum of the following terms:
     one-electron contribution =    -107.29295483 Ry
     hartree contribution      =      74.46864716 Ry
     xc contribution           =     -95.22067272 Ry
     ewald contribution        =    -197.51530323 Ry

     convergence has been achieved in   5 iterations

     Writing all to output data dir ./beta-sn-scf/betatin.save/ :
     XML data file, charge density, pseudopotentials, collected wavefunctions

     init_run     :      0.32s CPU      0.37s WALL (       1 calls)
     electrons    :      0.15s CPU      0.22s WALL (       1 calls)

     Called by init_run:
     wfcinit      :      0.01s CPU      0.03s WALL (       1 calls)
     potinit      :      0.02s CPU      0.03s WALL (       1 calls)
     hinit0       :      0.29s CPU      0.29s WALL (       1 calls)

     Called by electrons:
     c_bands      :      0.09s CPU      0.12s WALL (       6 calls)
     sum_band     :      0.03s CPU      0.04s WALL (       6 calls)
     v_of_rho     :      0.02s CPU      0.03s WALL (       6 calls)
     newd         :      0.00s CPU      0.01s WALL (       6 calls)
     mix_rho      :      0.00s CPU      0.00s WALL (       6 calls)

     Called by c_bands:
     init_us_2    :      0.00s CPU      0.00s WALL (      26 calls)
     cegterg      :      0.08s CPU      0.10s WALL (      12 calls)

     Called by *egterg:
     cdiaghg      :      0.01s CPU      0.02s WALL (      51 calls)
     h_psi        :      0.07s CPU      0.09s WALL (      55 calls)
     s_psi        :      0.00s CPU      0.00s WALL (      55 calls)
     g_psi        :      0.00s CPU      0.00s WALL (      41 calls)

     Called by h_psi:
     h_psi:calbec :      0.00s CPU      0.01s WALL (      55 calls)
     vloc_psi     :      0.06s CPU      0.08s WALL (      55 calls)
     add_vuspsi   :      0.00s CPU      0.00s WALL (      55 calls)

     General routines
     calbec       :      0.00s CPU      0.01s WALL (      67 calls)
     fft          :      0.27s CPU      0.27s WALL (      67 calls)
     ffts         :      0.00s CPU      0.00s WALL (       6 calls)
     fftw         :      0.07s CPU      0.09s WALL (    1102 calls)

     Parallel routines

     PWSCF        :      0.73s CPU      1.00s WALL


   This run was terminated on:  16: 7:58   5Feb2026            

=------------------------------------------------------------------------------=
   JOB DONE.
=------------------------------------------------------------------------------=
