
     Program PWSCF v.7.3.1 starts on  5Feb2026 at 16:33:38 

     This program is part of the open-source Quantum ESPRESSO suite
     for quantum simulation of materials; please cite
         "P. Giannozzi et al., J. Phys.:Condens. Matter 21 395502 (2009);
         "P. Giannozzi et al., J. Phys.:Condens. Matter 29 465901 (2017);
         "P. Giannozzi et al., J. Chem. Phys. 152 154105 (2020);
          URL http://www.quantum-espresso.org", 
     in publications or presentations arising from this work. More details at
     http://www.quantum-espresso.org/quote

     Parallel version (MPI), running on   128 processors

     MPI processes distributed on     1 nodes
     241284 MiB available memory on the printing compute node when the environment starts

     Waiting for input...
     Reading input from standard input

     Current dimensions of program PWSCF are:
     Max number of different atomic species (ntypx) = 10
     Max number of k-points (npk) =  40000
     Max angular momentum in pseudopotentials (lmaxx) =  4

     K-points division:     npool     =       4
     R & G space division:  proc/nbgrp/npool/nimage =      32
     Subspace diagonalization in iterative solution of the eigenvalue problem:
     a serial algorithm will be used


     Parallelization info
     --------------------
     sticks:   dense  smooth     PW     G-vecs:    dense   smooth      PW
     Min         125     125     37                 3810     3810     616
     Max         126     126     38                 3812     3812     618
     Sum        4021    4021   1197               121953   121953   19735

     Using Slab Decomposition



     bravais-lattice index     =            7
     lattice parameter (alat)  =      11.0200  a.u.
     unit-cell volume          =     365.0809 (a.u.)^3
     number of atoms/cell      =            2
     number of atomic types    =            1
     number of electrons       =        28.00
     number of Kohn-Sham states=           14
     kinetic-energy cutoff     =     183.0000  Ry
     charge density cutoff     =     732.0000  Ry
     scf convergence threshold =      1.0E-07
     mixing beta               =       0.7000
     number of iterations used =            8  plain     mixing
     Exchange-correlation=  SLA  PW   GGX  GGC
                           (   1   4   2   2   0   0   0)

     celldm(1)=  11.020000  celldm(2)=   0.000000  celldm(3)=   0.545600
     celldm(4)=   0.000000  celldm(5)=   0.000000  celldm(6)=   0.000000

     crystal axes: (cart. coord. in units of alat)
               a(1) = (   0.500000  -0.500000   0.272800 )  
               a(2) = (   0.500000   0.500000   0.272800 )  
               a(3) = (  -0.500000  -0.500000   0.272800 )  

     reciprocal axes: (cart. coord. in units 2 pi/alat)
               b(1) = (  1.000000 -1.000000  0.000000 )  
               b(2) = (  0.000000  1.000000  1.832845 )  
               b(3) = ( -1.000000  0.000000  1.832845 )  


     PseudoPot. # 1 for Sn read from file:
     ./Sn.pw91-n-van.UPF
     MD5 check sum: a38d2a872edd1a4efd76c0a1a38f7031
     Pseudo is Ultrasoft + core correction, Zval = 14.0
     Generated by new atomic code, or converted to UPF format
     Using radial grid of  891 points,  6 beta functions with: 
                l(1) =   0
                l(2) =   0
                l(3) =   1
                l(4) =   1
                l(5) =   2
                l(6) =   2
     Q(r) pseudized with  8 coefficients,  rinner =    1.100   1.100   1.100
                                                       1.100   1.100

     atomic species   valence    mass     pseudopotential
     Sn               14.00   118.70000     Sn( 1.00)

     16 Sym. Ops., with inversion, found (12 have fractional translation)



   Cartesian axes

     site n.     atom                  positions (alat units)
         1        Sn     tau(   1) = (   0.0000000  -0.2500000   0.0682000  )
         2        Sn     tau(   2) = (   0.0000000   0.2500000  -0.0682000  )

     number of k points=    13
                       cart. coord. in units 2pi/alat
        k(    1) = (   0.0000000   0.0000000   0.0000000), wk =   0.0312500
        k(    2) = (  -0.2500000   0.0000000   0.4582111), wk =   0.2500000
        k(    3) = (   0.5000000   0.0000000  -0.9164223), wk =   0.1250000
        k(    4) = (  -0.2500000   0.2500000   0.9164223), wk =   0.2500000
        k(    5) = (   0.5000000   0.2500000  -0.4582111), wk =   0.5000000
        k(    6) = (   0.2500000   0.2500000   0.0000000), wk =   0.1250000
        k(    7) = (   0.5000000  -0.5000000  -1.8328446), wk =   0.0625000
        k(    8) = (   0.0000000   0.0000000   0.9164223), wk =   0.0625000
        k(    9) = (   0.7500000   0.0000000  -0.4582111), wk =   0.2500000
        k(   10) = (   0.5000000   0.0000000   0.0000000), wk =   0.1250000
        k(   11) = (   0.7500000  -0.7500000  -1.8328446), wk =   0.1250000
        k(   12) = (   0.5000000  -0.5000000  -0.9164223), wk =   0.0625000
        k(   13) = (   0.0000000   0.0000000  -1.8328446), wk =   0.0312500

     Dense  grid:   121953 G-vectors     FFT dimensions: (  72,  72,  72)

     Estimated max dynamical RAM per process >       8.37 MB

     Estimated total dynamical RAM >     982.07 MB

     Initial potential from superposition of free atoms

     starting charge      27.9964, renormalised to      28.0000
     Starting wfcs are   18 randomized atomic wfcs

     total cpu time spent up to now is        1.1 secs

     per-process dynamical memory:    15.0 Mb

     Self-consistent Calculation

     iteration #  1     ecut=   183.00 Ry     beta= 0.70
     Davidson diagonalization with overlap
     ethr =  1.00E-02,  avg # of iterations =  2.0

     Threshold (ethr) on eigenvalues was too large:
     Diagonalizing with lowered threshold

     Davidson diagonalization with overlap
     ethr =  2.29E-05,  avg # of iterations =  3.7

     total cpu time spent up to now is        1.4 secs

     total energy              =    -325.58561269 Ry
     estimated scf accuracy    <       0.00677700 Ry

     iteration #  2     ecut=   183.00 Ry     beta= 0.70
     Davidson diagonalization with overlap
     ethr =  2.42E-05,  avg # of iterations =  2.0

     total cpu time spent up to now is        1.6 secs

     total energy              =    -325.58770300 Ry
     estimated scf accuracy    <       0.00045394 Ry

     iteration #  3     ecut=   183.00 Ry     beta= 0.70
     Davidson diagonalization with overlap
     ethr =  1.62E-06,  avg # of iterations =  2.0

     total cpu time spent up to now is        1.7 secs

     total energy              =    -325.58782673 Ry
     estimated scf accuracy    <       0.00002805 Ry

     iteration #  4     ecut=   183.00 Ry     beta= 0.70
     Davidson diagonalization with overlap
     ethr =  1.00E-07,  avg # of iterations =  3.2

     total cpu time spent up to now is        1.9 secs

     total energy              =    -325.58783290 Ry
     estimated scf accuracy    <       0.00000103 Ry

     iteration #  5     ecut=   183.00 Ry     beta= 0.70
     Davidson diagonalization with overlap
     ethr =  3.67E-09,  avg # of iterations =  3.7

     total cpu time spent up to now is        2.0 secs

     total energy              =    -325.58783313 Ry
     estimated scf accuracy    <       0.00000032 Ry

     iteration #  6     ecut=   183.00 Ry     beta= 0.70
     Davidson diagonalization with overlap
     ethr =  1.13E-09,  avg # of iterations =  2.5

     total cpu time spent up to now is        2.2 secs

     End of self-consistent calculation

          k = 0.0000 0.0000 0.0000 ( 15185 PWs)   bands (ev):

   -10.8107 -10.7280 -10.6842 -10.6728 -10.5228 -10.5228 -10.5117 -10.5117
   -10.4196 -10.3077  -0.3470   7.1619   8.8399   8.8399

          k =-0.2500 0.0000 0.4582 ( 15243 PWs)   bands (ev):

   -10.7749 -10.6469 -10.6424 -10.6011 -10.5787 -10.5374 -10.5290 -10.5060
   -10.4408 -10.3422   0.8913   6.5844   9.0441  11.2834

          k = 0.5000 0.0000-0.9164 ( 15252 PWs)   bands (ev):

   -10.7355 -10.6651 -10.6483 -10.6089 -10.5749 -10.5719 -10.4731 -10.4260
   -10.4223 -10.3758   3.8537   5.3959   8.4878   9.1144

          k =-0.2500 0.2500 0.9164 ( 15269 PWs)   bands (ev):

   -10.7494 -10.6617 -10.6184 -10.6014 -10.5996 -10.5490 -10.4902 -10.4708
   -10.3945 -10.3667   3.7390   6.0514   7.1234   9.1085

          k = 0.5000 0.2500-0.4582 ( 15260 PWs)   bands (ev):

   -10.7182 -10.6587 -10.6551 -10.6011 -10.5839 -10.5268 -10.4931 -10.4855
   -10.4683 -10.4039   2.0037   4.1414   9.3956  10.6281

          k = 0.2500 0.2500 0.0000 ( 15234 PWs)   bands (ev):

   -10.7609 -10.7349 -10.6996 -10.6424 -10.5495 -10.5021 -10.5004 -10.4924
   -10.4491 -10.3563   0.2177   4.5881   9.5065  10.5380

          k = 0.5000-0.5000-1.8328 ( 15254 PWs)   bands (ev):

   -10.7313 -10.7313 -10.6434 -10.6434 -10.5494 -10.5494 -10.4781 -10.4781
   -10.4391 -10.4391   1.9009   1.9009  11.4184  11.4184

          k = 0.0000 0.0000 0.9164 ( 15273 PWs)   bands (ev):

   -10.7411 -10.6333 -10.6333 -10.6138 -10.5689 -10.5689 -10.5451 -10.4516
   -10.3969 -10.3512   3.2957   7.1436   7.9732   9.4590

          k = 0.7500 0.0000-0.4582 ( 15296 PWs)   bands (ev):

   -10.7054 -10.6631 -10.6005 -10.5912 -10.5566 -10.5400 -10.5290 -10.4924
   -10.4862 -10.4300   3.0229   4.3601   7.2618   8.4575

          k = 0.5000 0.0000 0.0000 ( 15248 PWs)   bands (ev):

   -10.7468 -10.7171 -10.7051 -10.6110 -10.5270 -10.5191 -10.5152 -10.4724
   -10.4701 -10.4012   0.7802   4.3547   7.0799  10.7927

          k = 0.7500-0.7500-1.8328 ( 15268 PWs)   bands (ev):

   -10.7377 -10.7377 -10.6057 -10.6057 -10.5417 -10.5417 -10.4924 -10.4924
   -10.4637 -10.4637   2.4052   2.4052   7.9918   7.9918

          k = 0.5000-0.5000-0.9164 ( 15280 PWs)   bands (ev):

   -10.7137 -10.7137 -10.6432 -10.6432 -10.5357 -10.5357 -10.4421 -10.4421
   -10.4152 -10.4152   4.8062   4.8062   7.2812   7.2812

          k = 0.0000 0.0000-1.8328 ( 15252 PWs)   bands (ev):

   -10.7405 -10.7405 -10.5419 -10.5419 -10.5315 -10.5315 -10.5198 -10.5198
   -10.5071 -10.5071   3.2430   3.2430   6.0121   6.0121

     highest occupied level (ev):    11.4184

!    total energy              =    -325.58783316 Ry
     estimated scf accuracy    <          3.4E-09 Ry

     The total energy is the sum of the following terms:
     one-electron contribution =    -107.32725832 Ry
     hartree contribution      =      74.47734254 Ry
     xc contribution           =     -95.22261418 Ry
     ewald contribution        =    -197.51530320 Ry

     convergence has been achieved in   6 iterations

     Writing all to output data dir ./beta-sn-scf/betatin.save/ :
     XML data file, charge density, pseudopotentials, collected wavefunctions

     init_run     :      0.71s CPU      0.81s WALL (       1 calls)
     electrons    :      1.01s CPU      1.09s WALL (       1 calls)

     Called by init_run:
     wfcinit      :      0.05s CPU      0.07s WALL (       1 calls)
     potinit      :      0.01s CPU      0.04s WALL (       1 calls)
     hinit0       :      0.59s CPU      0.60s WALL (       1 calls)

     Called by electrons:
     c_bands      :      0.67s CPU      0.70s WALL (       7 calls)
     sum_band     :      0.18s CPU      0.20s WALL (       7 calls)
     v_of_rho     :      0.09s CPU      0.11s WALL (       7 calls)
     newd         :      0.03s CPU      0.05s WALL (       7 calls)
     mix_rho      :      0.01s CPU      0.01s WALL (       7 calls)

     Called by c_bands:
     init_us_2    :      0.01s CPU      0.01s WALL (      60 calls)
     cegterg      :      0.63s CPU      0.64s WALL (      28 calls)

     Called by *egterg:
     cdiaghg      :      0.04s CPU      0.04s WALL (     112 calls)
     h_psi        :      0.58s CPU      0.60s WALL (     120 calls)
     s_psi        :      0.01s CPU      0.01s WALL (     120 calls)
     g_psi        :      0.00s CPU      0.00s WALL (      88 calls)

     Called by h_psi:
     h_psi:calbec :      0.02s CPU      0.02s WALL (     120 calls)
     vloc_psi     :      0.55s CPU      0.57s WALL (     120 calls)
     add_vuspsi   :      0.01s CPU      0.01s WALL (     120 calls)

     General routines
     calbec       :      0.02s CPU      0.02s WALL (     148 calls)
     fft          :      0.59s CPU      0.60s WALL (      78 calls)
     ffts         :      0.00s CPU      0.00s WALL (       7 calls)
     fftw         :      0.59s CPU      0.61s WALL (    2462 calls)

     Parallel routines

     PWSCF        :      1.97s CPU      2.35s WALL


   This run was terminated on:  16:33:40   5Feb2026            

=------------------------------------------------------------------------------=
   JOB DONE.
=------------------------------------------------------------------------------=
