
     Program PWSCF v.7.3.1 starts on  5Feb2026 at 16:13:35 

     This program is part of the open-source Quantum ESPRESSO suite
     for quantum simulation of materials; please cite
         "P. Giannozzi et al., J. Phys.:Condens. Matter 21 395502 (2009);
         "P. Giannozzi et al., J. Phys.:Condens. Matter 29 465901 (2017);
         "P. Giannozzi et al., J. Chem. Phys. 152 154105 (2020);
          URL http://www.quantum-espresso.org", 
     in publications or presentations arising from this work. More details at
     http://www.quantum-espresso.org/quote

     Parallel version (MPI), running on   128 processors

     MPI processes distributed on     1 nodes
     241402 MiB available memory on the printing compute node when the environment starts

     Waiting for input...
     Reading input from standard input

     Current dimensions of program PWSCF are:
     Max number of different atomic species (ntypx) = 10
     Max number of k-points (npk) =  40000
     Max angular momentum in pseudopotentials (lmaxx) =  4

     K-points division:     npool     =       8
     R & G space division:  proc/nbgrp/npool/nimage =      16
     Subspace diagonalization in iterative solution of the eigenvalue problem:
     a serial algorithm will be used


     Parallelization info
     --------------------
     sticks:   dense  smooth     PW     G-vecs:    dense   smooth      PW
     Min         105     105     34                 2079     2079     383
     Max         106     106     36                 2082     2082     384
     Sum        1693    1693    551                33289    33289    6129

     Using Slab Decomposition



     bravais-lattice index     =            7
     lattice parameter (alat)  =      11.0200  a.u.
     unit-cell volume          =     365.0809 (a.u.)^3
     number of atoms/cell      =            2
     number of atomic types    =            1
     number of electrons       =        28.00
     number of Kohn-Sham states=           14
     kinetic-energy cutoff     =      77.0000  Ry
     charge density cutoff     =     308.0000  Ry
     scf convergence threshold =      1.0E-07
     mixing beta               =       0.7000
     number of iterations used =            8  plain     mixing
     Exchange-correlation=  SLA  PW   GGX  GGC
                           (   1   4   2   2   0   0   0)

     celldm(1)=  11.020000  celldm(2)=   0.000000  celldm(3)=   0.545600
     celldm(4)=   0.000000  celldm(5)=   0.000000  celldm(6)=   0.000000

     crystal axes: (cart. coord. in units of alat)
               a(1) = (   0.500000  -0.500000   0.272800 )  
               a(2) = (   0.500000   0.500000   0.272800 )  
               a(3) = (  -0.500000  -0.500000   0.272800 )  

     reciprocal axes: (cart. coord. in units 2 pi/alat)
               b(1) = (  1.000000 -1.000000  0.000000 )  
               b(2) = (  0.000000  1.000000  1.832845 )  
               b(3) = ( -1.000000  0.000000  1.832845 )  


     PseudoPot. # 1 for Sn read from file:
     ./Sn.pw91-n-van.UPF
     MD5 check sum: a38d2a872edd1a4efd76c0a1a38f7031
     Pseudo is Ultrasoft + core correction, Zval = 14.0
     Generated by new atomic code, or converted to UPF format
     Using radial grid of  891 points,  6 beta functions with: 
                l(1) =   0
                l(2) =   0
                l(3) =   1
                l(4) =   1
                l(5) =   2
                l(6) =   2
     Q(r) pseudized with  8 coefficients,  rinner =    1.100   1.100   1.100
                                                       1.100   1.100

     atomic species   valence    mass     pseudopotential
     Sn               14.00   118.70000     Sn( 1.00)

     16 Sym. Ops., with inversion, found (12 have fractional translation)



   Cartesian axes

     site n.     atom                  positions (alat units)
         1        Sn     tau(   1) = (   0.0000000  -0.2500000   0.0682000  )
         2        Sn     tau(   2) = (   0.0000000   0.2500000  -0.0682000  )

     number of k points=    13
                       cart. coord. in units 2pi/alat
        k(    1) = (   0.0000000   0.0000000   0.0000000), wk =   0.0312500
        k(    2) = (  -0.2500000   0.0000000   0.4582111), wk =   0.2500000
        k(    3) = (   0.5000000   0.0000000  -0.9164223), wk =   0.1250000
        k(    4) = (  -0.2500000   0.2500000   0.9164223), wk =   0.2500000
        k(    5) = (   0.5000000   0.2500000  -0.4582111), wk =   0.5000000
        k(    6) = (   0.2500000   0.2500000   0.0000000), wk =   0.1250000
        k(    7) = (   0.5000000  -0.5000000  -1.8328446), wk =   0.0625000
        k(    8) = (   0.0000000   0.0000000   0.9164223), wk =   0.0625000
        k(    9) = (   0.7500000   0.0000000  -0.4582111), wk =   0.2500000
        k(   10) = (   0.5000000   0.0000000   0.0000000), wk =   0.1250000
        k(   11) = (   0.7500000  -0.7500000  -1.8328446), wk =   0.1250000
        k(   12) = (   0.5000000  -0.5000000  -0.9164223), wk =   0.0625000
        k(   13) = (   0.0000000   0.0000000  -1.8328446), wk =   0.0312500

     Dense  grid:    33289 G-vectors     FFT dimensions: (  48,  48,  48)

     Estimated max dynamical RAM per process >       3.83 MB

     Estimated total dynamical RAM >     433.53 MB

     Initial potential from superposition of free atoms

     starting charge      27.9964, renormalised to      28.0000
     Starting wfcs are   18 randomized atomic wfcs

     total cpu time spent up to now is        0.8 secs

     per-process dynamical memory:    11.2 Mb

     Self-consistent Calculation

     iteration #  1     ecut=    77.00 Ry     beta= 0.70
     Davidson diagonalization with overlap
     ethr =  1.00E-02,  avg # of iterations =  1.8

     Threshold (ethr) on eigenvalues was too large:
     Diagonalizing with lowered threshold

     Davidson diagonalization with overlap
     ethr =  2.41E-05,  avg # of iterations =  3.9

     total cpu time spent up to now is        0.9 secs

     total energy              =    -325.56901871 Ry
     estimated scf accuracy    <       0.00694322 Ry

     iteration #  2     ecut=    77.00 Ry     beta= 0.70
     Davidson diagonalization with overlap
     ethr =  2.48E-05,  avg # of iterations =  2.0

     total cpu time spent up to now is        1.0 secs

     total energy              =    -325.56999666 Ry
     estimated scf accuracy    <       0.00056135 Ry

     iteration #  3     ecut=    77.00 Ry     beta= 0.70
     Davidson diagonalization with overlap
     ethr =  2.00E-06,  avg # of iterations =  2.3

     total cpu time spent up to now is        1.0 secs

     total energy              =    -325.57006296 Ry
     estimated scf accuracy    <       0.00004342 Ry

     iteration #  4     ecut=    77.00 Ry     beta= 0.70
     Davidson diagonalization with overlap
     ethr =  1.55E-07,  avg # of iterations =  3.0

     total cpu time spent up to now is        1.0 secs

     total energy              =    -325.57006899 Ry
     estimated scf accuracy    <       0.00000049 Ry

     iteration #  5     ecut=    77.00 Ry     beta= 0.70
     Davidson diagonalization with overlap
     ethr =  1.76E-09,  avg # of iterations =  3.4

     total cpu time spent up to now is        1.1 secs

     End of self-consistent calculation

          k = 0.0000 0.0000 0.0000 (  4205 PWs)   bands (ev):

   -10.8032 -10.7207 -10.6777 -10.6654 -10.5156 -10.5156 -10.5045 -10.5045
   -10.4130 -10.2997  -0.3468   7.1615   8.8401   8.8401

          k =-0.2500 0.0000 0.4582 (  4171 PWs)   bands (ev):

   -10.7673 -10.6404 -10.6349 -10.5938 -10.5715 -10.5302 -10.5216 -10.4985
   -10.4340 -10.3342   0.8915   6.5841   9.0445  11.2836

          k = 0.5000 0.0000-0.9164 (  4150 PWs)   bands (ev):

   -10.7280 -10.6578 -10.6413 -10.6015 -10.5680 -10.5647 -10.4664 -10.4183
   -10.4145 -10.3678   3.8535   5.3962   8.4879   9.1149

          k =-0.2500 0.2500 0.9164 (  4164 PWs)   bands (ev):

   -10.7420 -10.6545 -10.6112 -10.5945 -10.5924 -10.5418 -10.4827 -10.4639
   -10.3866 -10.3588   3.7390   6.0513   7.1240   9.1090

          k = 0.5000 0.2500-0.4582 (  4170 PWs)   bands (ev):

   -10.7106 -10.6513 -10.6477 -10.5939 -10.5771 -10.5195 -10.4862 -10.4781
   -10.4608 -10.3962   2.0038   4.1414   9.3960  10.6288

          k = 0.2500 0.2500 0.0000 (  4178 PWs)   bands (ev):

   -10.7532 -10.7275 -10.6922 -10.6359 -10.5422 -10.4949 -10.4931 -10.4851
   -10.4423 -10.3483   0.2179   4.5881   9.5068  10.5385

          k = 0.5000-0.5000-1.8328 (  4166 PWs)   bands (ev):

   -10.7239 -10.7239 -10.6359 -10.6359 -10.5427 -10.5427 -10.4709 -10.4709
   -10.4315 -10.4315   1.9010   1.9010  11.4189  11.4189

          k = 0.0000 0.0000 0.9164 (  4132 PWs)   bands (ev):

   -10.7334 -10.6262 -10.6262 -10.6072 -10.5617 -10.5617 -10.5372 -10.4447
   -10.3890 -10.3431   3.2957   7.1434   7.9738   9.4595

          k = 0.7500 0.0000-0.4582 (  4165 PWs)   bands (ev):

   -10.6977 -10.6555 -10.5931 -10.5842 -10.5497 -10.5328 -10.5216 -10.4856
   -10.4785 -10.4222   3.0229   4.3600   7.2626   8.4580

          k = 0.5000 0.0000 0.0000 (  4165 PWs)   bands (ev):

   -10.7392 -10.7098 -10.6976 -10.6044 -10.5195 -10.5118 -10.5081 -10.4650
   -10.4633 -10.3933   0.7804   4.3546   7.0806  10.7934

          k = 0.7500-0.7500-1.8328 (  4176 PWs)   bands (ev):

   -10.7303 -10.7303 -10.5981 -10.5981 -10.5350 -10.5350 -10.4851 -10.4851
   -10.4562 -10.4562   2.4053   2.4053   7.9924   7.9924

          k = 0.5000-0.5000-0.9164 (  4172 PWs)   bands (ev):

   -10.7063 -10.7063 -10.6360 -10.6360 -10.5289 -10.5289 -10.4345 -10.4345
   -10.4073 -10.4073   4.8060   4.8060   7.2820   7.2820

          k = 0.0000 0.0000-1.8328 (  4152 PWs)   bands (ev):

   -10.7331 -10.7331 -10.5341 -10.5341 -10.5247 -10.5247 -10.5126 -10.5126
   -10.4999 -10.4999   3.2430   3.2430   6.0128   6.0128

     highest occupied level (ev):    11.4189

!    total energy              =    -325.57006920 Ry
     estimated scf accuracy    <       0.00000003 Ry

     The total energy is the sum of the following terms:
     one-electron contribution =    -107.30476555 Ry
     hartree contribution      =      74.47139899 Ry
     xc contribution           =     -95.22139945 Ry
     ewald contribution        =    -197.51530320 Ry

     convergence has been achieved in   5 iterations

     Writing all to output data dir ./beta-sn-scf/betatin.save/ :
     XML data file, charge density, pseudopotentials, collected wavefunctions

     init_run     :      0.42s CPU      0.50s WALL (       1 calls)
     electrons    :      0.23s CPU      0.30s WALL (       1 calls)

     Called by init_run:
     wfcinit      :      0.01s CPU      0.02s WALL (       1 calls)
     potinit      :      0.01s CPU      0.03s WALL (       1 calls)
     hinit0       :      0.38s CPU      0.39s WALL (       1 calls)

     Called by electrons:
     c_bands      :      0.15s CPU      0.17s WALL (       6 calls)
     sum_band     :      0.03s CPU      0.05s WALL (       6 calls)
     v_of_rho     :      0.03s CPU      0.04s WALL (       6 calls)
     newd         :      0.01s CPU      0.02s WALL (       6 calls)
     mix_rho      :      0.00s CPU      0.00s WALL (       6 calls)

     Called by c_bands:
     init_us_2    :      0.00s CPU      0.00s WALL (      26 calls)
     cegterg      :      0.13s CPU      0.14s WALL (      12 calls)

     Called by *egterg:
     cdiaghg      :      0.01s CPU      0.02s WALL (      49 calls)
     h_psi        :      0.10s CPU      0.12s WALL (      53 calls)
     s_psi        :      0.00s CPU      0.00s WALL (      53 calls)
     g_psi        :      0.00s CPU      0.00s WALL (      39 calls)

     Called by h_psi:
     h_psi:calbec :      0.01s CPU      0.01s WALL (      53 calls)
     vloc_psi     :      0.09s CPU      0.11s WALL (      53 calls)
     add_vuspsi   :      0.00s CPU      0.00s WALL (      53 calls)

     General routines
     calbec       :      0.01s CPU      0.01s WALL (      65 calls)
     fft          :      0.36s CPU      0.37s WALL (      67 calls)
     ffts         :      0.00s CPU      0.00s WALL (       6 calls)
     fftw         :      0.10s CPU      0.12s WALL (    1086 calls)

     Parallel routines

     PWSCF        :      0.91s CPU      1.20s WALL


   This run was terminated on:  16:13:36   5Feb2026            

=------------------------------------------------------------------------------=
   JOB DONE.
=------------------------------------------------------------------------------=
