
     Program PWSCF v.7.3.1 starts on  5Feb2026 at 16:24:50 

     This program is part of the open-source Quantum ESPRESSO suite
     for quantum simulation of materials; please cite
         "P. Giannozzi et al., J. Phys.:Condens. Matter 21 395502 (2009);
         "P. Giannozzi et al., J. Phys.:Condens. Matter 29 465901 (2017);
         "P. Giannozzi et al., J. Chem. Phys. 152 154105 (2020);
          URL http://www.quantum-espresso.org", 
     in publications or presentations arising from this work. More details at
     http://www.quantum-espresso.org/quote

     Parallel version (MPI), running on   128 processors

     MPI processes distributed on     1 nodes
     241310 MiB available memory on the printing compute node when the environment starts

     Waiting for input...
     Reading input from standard input

     Current dimensions of program PWSCF are:
     Max number of different atomic species (ntypx) = 10
     Max number of k-points (npk) =  40000
     Max angular momentum in pseudopotentials (lmaxx) =  4

     K-points division:     npool     =       4
     R & G space division:  proc/nbgrp/npool/nimage =      32
     Subspace diagonalization in iterative solution of the eigenvalue problem:
     a serial algorithm will be used


     Parallelization info
     --------------------
     sticks:   dense  smooth     PW     G-vecs:    dense   smooth      PW
     Min          95      95     29                 2527     2527     423
     Max          96      96     30                 2531     2531     424
     Sum        3067    3067    931                80939    80939   13561

     Using Slab Decomposition



     bravais-lattice index     =            7
     lattice parameter (alat)  =      11.0200  a.u.
     unit-cell volume          =     365.0809 (a.u.)^3
     number of atoms/cell      =            2
     number of atomic types    =            1
     number of electrons       =        28.00
     number of Kohn-Sham states=           14
     kinetic-energy cutoff     =     139.0000  Ry
     charge density cutoff     =     556.0000  Ry
     scf convergence threshold =      1.0E-07
     mixing beta               =       0.7000
     number of iterations used =            8  plain     mixing
     Exchange-correlation=  SLA  PW   GGX  GGC
                           (   1   4   2   2   0   0   0)

     celldm(1)=  11.020000  celldm(2)=   0.000000  celldm(3)=   0.545600
     celldm(4)=   0.000000  celldm(5)=   0.000000  celldm(6)=   0.000000

     crystal axes: (cart. coord. in units of alat)
               a(1) = (   0.500000  -0.500000   0.272800 )  
               a(2) = (   0.500000   0.500000   0.272800 )  
               a(3) = (  -0.500000  -0.500000   0.272800 )  

     reciprocal axes: (cart. coord. in units 2 pi/alat)
               b(1) = (  1.000000 -1.000000  0.000000 )  
               b(2) = (  0.000000  1.000000  1.832845 )  
               b(3) = ( -1.000000  0.000000  1.832845 )  


     PseudoPot. # 1 for Sn read from file:
     ./Sn.pw91-n-van.UPF
     MD5 check sum: a38d2a872edd1a4efd76c0a1a38f7031
     Pseudo is Ultrasoft + core correction, Zval = 14.0
     Generated by new atomic code, or converted to UPF format
     Using radial grid of  891 points,  6 beta functions with: 
                l(1) =   0
                l(2) =   0
                l(3) =   1
                l(4) =   1
                l(5) =   2
                l(6) =   2
     Q(r) pseudized with  8 coefficients,  rinner =    1.100   1.100   1.100
                                                       1.100   1.100

     atomic species   valence    mass     pseudopotential
     Sn               14.00   118.70000     Sn( 1.00)

     16 Sym. Ops., with inversion, found (12 have fractional translation)



   Cartesian axes

     site n.     atom                  positions (alat units)
         1        Sn     tau(   1) = (   0.0000000  -0.2500000   0.0682000  )
         2        Sn     tau(   2) = (   0.0000000   0.2500000  -0.0682000  )

     number of k points=    13
                       cart. coord. in units 2pi/alat
        k(    1) = (   0.0000000   0.0000000   0.0000000), wk =   0.0312500
        k(    2) = (  -0.2500000   0.0000000   0.4582111), wk =   0.2500000
        k(    3) = (   0.5000000   0.0000000  -0.9164223), wk =   0.1250000
        k(    4) = (  -0.2500000   0.2500000   0.9164223), wk =   0.2500000
        k(    5) = (   0.5000000   0.2500000  -0.4582111), wk =   0.5000000
        k(    6) = (   0.2500000   0.2500000   0.0000000), wk =   0.1250000
        k(    7) = (   0.5000000  -0.5000000  -1.8328446), wk =   0.0625000
        k(    8) = (   0.0000000   0.0000000   0.9164223), wk =   0.0625000
        k(    9) = (   0.7500000   0.0000000  -0.4582111), wk =   0.2500000
        k(   10) = (   0.5000000   0.0000000   0.0000000), wk =   0.1250000
        k(   11) = (   0.7500000  -0.7500000  -1.8328446), wk =   0.1250000
        k(   12) = (   0.5000000  -0.5000000  -0.9164223), wk =   0.0625000
        k(   13) = (   0.0000000   0.0000000  -1.8328446), wk =   0.0312500

     Dense  grid:    80939 G-vectors     FFT dimensions: (  64,  64,  64)

     Estimated max dynamical RAM per process >       5.86 MB

     Estimated total dynamical RAM >     690.37 MB

     Initial potential from superposition of free atoms

     starting charge      27.9964, renormalised to      28.0000
     Starting wfcs are   18 randomized atomic wfcs

     total cpu time spent up to now is        0.8 secs

     per-process dynamical memory:    12.1 Mb

     Self-consistent Calculation

     iteration #  1     ecut=   139.00 Ry     beta= 0.70
     Davidson diagonalization with overlap
     ethr =  1.00E-02,  avg # of iterations =  1.8

     Threshold (ethr) on eigenvalues was too large:
     Diagonalizing with lowered threshold

     Davidson diagonalization with overlap
     ethr =  2.37E-05,  avg # of iterations =  3.8

     total cpu time spent up to now is        1.0 secs

     total energy              =    -325.58190046 Ry
     estimated scf accuracy    <       0.00685154 Ry

     iteration #  2     ecut=   139.00 Ry     beta= 0.70
     Davidson diagonalization with overlap
     ethr =  2.45E-05,  avg # of iterations =  2.0

     total cpu time spent up to now is        1.1 secs

     total energy              =    -325.58299844 Ry
     estimated scf accuracy    <       0.00054389 Ry

     iteration #  3     ecut=   139.00 Ry     beta= 0.70
     Davidson diagonalization with overlap
     ethr =  1.94E-06,  avg # of iterations =  2.4

     total cpu time spent up to now is        1.2 secs

     total energy              =    -325.58307841 Ry
     estimated scf accuracy    <       0.00004146 Ry

     iteration #  4     ecut=   139.00 Ry     beta= 0.70
     Davidson diagonalization with overlap
     ethr =  1.48E-07,  avg # of iterations =  3.1

     total cpu time spent up to now is        1.3 secs

     total energy              =    -325.58308404 Ry
     estimated scf accuracy    <       0.00000027 Ry

     iteration #  5     ecut=   139.00 Ry     beta= 0.70
     Davidson diagonalization with overlap
     ethr =  9.60E-10,  avg # of iterations =  4.3

     total cpu time spent up to now is        1.4 secs

     End of self-consistent calculation

          k = 0.0000 0.0000 0.0000 ( 10139 PWs)   bands (ev):

   -10.8092 -10.7265 -10.6826 -10.6712 -10.5213 -10.5213 -10.5101 -10.5101
   -10.4181 -10.3059  -0.3472   7.1615   8.8398   8.8398

          k =-0.2500 0.0000 0.4582 ( 10107 PWs)   bands (ev):

   -10.7733 -10.6453 -10.6407 -10.5995 -10.5770 -10.5357 -10.5273 -10.5043
   -10.4391 -10.3404   0.8911   6.5842   9.0440  11.2833

          k = 0.5000 0.0000-0.9164 ( 10106 PWs)   bands (ev):

   -10.7339 -10.6634 -10.6466 -10.6073 -10.5731 -10.5702 -10.4714 -10.4243
   -10.4206 -10.3740   3.8535   5.3958   8.4875   9.1143

          k =-0.2500 0.2500 0.9164 ( 10108 PWs)   bands (ev):

   -10.7478 -10.6601 -10.6168 -10.5997 -10.5979 -10.5473 -10.4886 -10.4691
   -10.3928 -10.3649   3.7388   6.0512   7.1233   9.1084

          k = 0.5000 0.2500-0.4582 ( 10101 PWs)   bands (ev):

   -10.7166 -10.6571 -10.6534 -10.5994 -10.5822 -10.5251 -10.4914 -10.4838
   -10.4666 -10.4021   2.0035   4.1412   9.3956  10.6281

          k = 0.2500 0.2500 0.0000 ( 10113 PWs)   bands (ev):

   -10.7592 -10.7333 -10.6980 -10.6408 -10.5479 -10.5004 -10.4988 -10.4907
   -10.4474 -10.3545   0.2175   4.5879   9.5064  10.5378

          k = 0.5000-0.5000-1.8328 ( 10106 PWs)   bands (ev):

   -10.7297 -10.7297 -10.6418 -10.6418 -10.5477 -10.5477 -10.4765 -10.4765
   -10.4373 -10.4373   1.9007   1.9007  11.4184  11.4184

          k = 0.0000 0.0000 0.9164 ( 10079 PWs)   bands (ev):

   -10.7394 -10.6317 -10.6317 -10.6121 -10.5672 -10.5672 -10.5434 -10.4497
   -10.3952 -10.3493   3.2955   7.1434   7.9731   9.4590

          k = 0.7500 0.0000-0.4582 ( 10099 PWs)   bands (ev):

   -10.7037 -10.6615 -10.5988 -10.5894 -10.5549 -10.5382 -10.5273 -10.4906
   -10.4845 -10.4282   3.0227   4.3599   7.2618   8.4574

          k = 0.5000 0.0000 0.0000 ( 10101 PWs)   bands (ev):

   -10.7451 -10.7155 -10.7035 -10.6093 -10.5253 -10.5174 -10.5136 -10.4707
   -10.4684 -10.3994   0.7800   4.3545   7.0799  10.7927

          k = 0.7500-0.7500-1.8328 ( 10118 PWs)   bands (ev):

   -10.7362 -10.7362 -10.6040 -10.6040 -10.5400 -10.5400 -10.4907 -10.4907
   -10.4620 -10.4620   2.4050   2.4050   7.9917   7.9917

          k = 0.5000-0.5000-0.9164 ( 10092 PWs)   bands (ev):

   -10.7120 -10.7120 -10.6416 -10.6416 -10.5339 -10.5339 -10.4404 -10.4404
   -10.4134 -10.4134   4.8060   4.8060   7.2811   7.2811

          k = 0.0000 0.0000-1.8328 ( 10164 PWs)   bands (ev):

   -10.7391 -10.7391 -10.5403 -10.5403 -10.5297 -10.5297 -10.5183 -10.5183
   -10.5055 -10.5055   3.2428   3.2428   6.0120   6.0120

     highest occupied level (ev):    11.4184

!    total energy              =    -325.58308425 Ry
     estimated scf accuracy    <          5.0E-09 Ry

     The total energy is the sum of the following terms:
     one-electron contribution =    -107.32090584 Ry
     hartree contribution      =      74.47521208 Ry
     xc contribution           =     -95.22208729 Ry
     ewald contribution        =    -197.51530320 Ry

     convergence has been achieved in   5 iterations

     Writing all to output data dir ./beta-sn-scf/betatin.save/ :
     XML data file, charge density, pseudopotentials, collected wavefunctions

     init_run     :      0.43s CPU      0.52s WALL (       1 calls)
     electrons    :      0.55s CPU      0.60s WALL (       1 calls)

     Called by init_run:
     wfcinit      :      0.08s CPU      0.10s WALL (       1 calls)
     potinit      :      0.01s CPU      0.03s WALL (       1 calls)
     hinit0       :      0.29s CPU      0.32s WALL (       1 calls)

     Called by electrons:
     c_bands      :      0.36s CPU      0.39s WALL (       6 calls)
     sum_band     :      0.10s CPU      0.10s WALL (       6 calls)
     v_of_rho     :      0.04s CPU      0.06s WALL (       6 calls)
     newd         :      0.02s CPU      0.03s WALL (       6 calls)
     mix_rho      :      0.01s CPU      0.01s WALL (       6 calls)

     Called by c_bands:
     init_us_2    :      0.01s CPU      0.01s WALL (      52 calls)
     cegterg      :      0.33s CPU      0.35s WALL (      24 calls)

     Called by *egterg:
     cdiaghg      :      0.03s CPU      0.03s WALL (     101 calls)
     h_psi        :      0.34s CPU      0.36s WALL (     109 calls)
     s_psi        :      0.01s CPU      0.01s WALL (     109 calls)
     g_psi        :      0.00s CPU      0.00s WALL (      81 calls)

     Called by h_psi:
     h_psi:calbec :      0.01s CPU      0.02s WALL (     109 calls)
     vloc_psi     :      0.32s CPU      0.34s WALL (     109 calls)
     add_vuspsi   :      0.01s CPU      0.01s WALL (     109 calls)

     General routines
     calbec       :      0.02s CPU      0.02s WALL (     133 calls)
     fft          :      0.28s CPU      0.29s WALL (      67 calls)
     ffts         :      0.00s CPU      0.00s WALL (       6 calls)
     fftw         :      0.34s CPU      0.36s WALL (    2206 calls)

     Parallel routines

     PWSCF        :      1.22s CPU      1.54s WALL


   This run was terminated on:  16:24:51   5Feb2026            

=------------------------------------------------------------------------------=
   JOB DONE.
=------------------------------------------------------------------------------=
