
     Program PWSCF v.7.3.1 starts on  5Feb2026 at 16: 6:13 

     This program is part of the open-source Quantum ESPRESSO suite
     for quantum simulation of materials; please cite
         "P. Giannozzi et al., J. Phys.:Condens. Matter 21 395502 (2009);
         "P. Giannozzi et al., J. Phys.:Condens. Matter 29 465901 (2017);
         "P. Giannozzi et al., J. Chem. Phys. 152 154105 (2020);
          URL http://www.quantum-espresso.org", 
     in publications or presentations arising from this work. More details at
     http://www.quantum-espresso.org/quote

     Parallel version (MPI), running on   128 processors

     MPI processes distributed on     1 nodes
     241302 MiB available memory on the printing compute node when the environment starts

     Waiting for input...
     Reading input from standard input

     Current dimensions of program PWSCF are:
     Max number of different atomic species (ntypx) = 10
     Max number of k-points (npk) =  40000
     Max angular momentum in pseudopotentials (lmaxx) =  4

     K-points division:     npool     =       8
     R & G space division:  proc/nbgrp/npool/nimage =      16
     Subspace diagonalization in iterative solution of the eigenvalue problem:
     a serial algorithm will be used


     Parallelization info
     --------------------
     sticks:   dense  smooth     PW     G-vecs:    dense   smooth      PW
     Min          45      45     16                  579      579     129
     Max          46      46     17                  581      581     131
     Sum         727     727    269                 9283     9283    2079

     Using Slab Decomposition



     bravais-lattice index     =            7
     lattice parameter (alat)  =      11.0200  a.u.
     unit-cell volume          =     365.0809 (a.u.)^3
     number of atoms/cell      =            2
     number of atomic types    =            1
     number of electrons       =        28.00
     number of Kohn-Sham states=           14
     kinetic-energy cutoff     =      33.0000  Ry
     charge density cutoff     =     132.0000  Ry
     scf convergence threshold =      1.0E-07
     mixing beta               =       0.7000
     number of iterations used =            8  plain     mixing
     Exchange-correlation=  SLA  PW   GGX  GGC
                           (   1   4   2   2   0   0   0)

     celldm(1)=  11.020000  celldm(2)=   0.000000  celldm(3)=   0.545600
     celldm(4)=   0.000000  celldm(5)=   0.000000  celldm(6)=   0.000000

     crystal axes: (cart. coord. in units of alat)
               a(1) = (   0.500000  -0.500000   0.272800 )  
               a(2) = (   0.500000   0.500000   0.272800 )  
               a(3) = (  -0.500000  -0.500000   0.272800 )  

     reciprocal axes: (cart. coord. in units 2 pi/alat)
               b(1) = (  1.000000 -1.000000  0.000000 )  
               b(2) = (  0.000000  1.000000  1.832845 )  
               b(3) = ( -1.000000  0.000000  1.832845 )  


     PseudoPot. # 1 for Sn read from file:
     ./Sn.pw91-n-van.UPF
     MD5 check sum: a38d2a872edd1a4efd76c0a1a38f7031
     Pseudo is Ultrasoft + core correction, Zval = 14.0
     Generated by new atomic code, or converted to UPF format
     Using radial grid of  891 points,  6 beta functions with: 
                l(1) =   0
                l(2) =   0
                l(3) =   1
                l(4) =   1
                l(5) =   2
                l(6) =   2
     Q(r) pseudized with  8 coefficients,  rinner =    1.100   1.100   1.100
                                                       1.100   1.100

     atomic species   valence    mass     pseudopotential
     Sn               14.00   118.70000     Sn( 1.00)

     16 Sym. Ops., with inversion, found (12 have fractional translation)



   Cartesian axes

     site n.     atom                  positions (alat units)
         1        Sn     tau(   1) = (   0.0000000  -0.2500000   0.0682000  )
         2        Sn     tau(   2) = (   0.0000000   0.2500000  -0.0682000  )

     number of k points=    13
                       cart. coord. in units 2pi/alat
        k(    1) = (   0.0000000   0.0000000   0.0000000), wk =   0.0312500
        k(    2) = (  -0.2500000   0.0000000   0.4582111), wk =   0.2500000
        k(    3) = (   0.5000000   0.0000000  -0.9164223), wk =   0.1250000
        k(    4) = (  -0.2500000   0.2500000   0.9164223), wk =   0.2500000
        k(    5) = (   0.5000000   0.2500000  -0.4582111), wk =   0.5000000
        k(    6) = (   0.2500000   0.2500000   0.0000000), wk =   0.1250000
        k(    7) = (   0.5000000  -0.5000000  -1.8328446), wk =   0.0625000
        k(    8) = (   0.0000000   0.0000000   0.9164223), wk =   0.0625000
        k(    9) = (   0.7500000   0.0000000  -0.4582111), wk =   0.2500000
        k(   10) = (   0.5000000   0.0000000   0.0000000), wk =   0.1250000
        k(   11) = (   0.7500000  -0.7500000  -1.8328446), wk =   0.1250000
        k(   12) = (   0.5000000  -0.5000000  -0.9164223), wk =   0.0625000
        k(   13) = (   0.0000000   0.0000000  -1.8328446), wk =   0.0312500

     Dense  grid:     9283 G-vectors     FFT dimensions: (  32,  32,  32)

     Estimated max dynamical RAM per process >       1.61 MB

     Estimated total dynamical RAM >     189.69 MB

     Initial potential from superposition of free atoms

     starting charge      27.9964, renormalised to      28.0000
     Starting wfcs are   18 randomized atomic wfcs

     total cpu time spent up to now is        0.6 secs

     per-process dynamical memory:     8.8 Mb

     Self-consistent Calculation

     iteration #  1     ecut=    33.00 Ry     beta= 0.70
     Davidson diagonalization with overlap
     ethr =  1.00E-02,  avg # of iterations =  1.8

     Threshold (ethr) on eigenvalues was too large:
     Diagonalizing with lowered threshold

     Davidson diagonalization with overlap
     ethr =  2.51E-05,  avg # of iterations =  3.8

     total cpu time spent up to now is        0.6 secs

     total energy              =    -325.54568969 Ry
     estimated scf accuracy    <       0.00709781 Ry

     iteration #  2     ecut=    33.00 Ry     beta= 0.70
     Davidson diagonalization with overlap
     ethr =  2.53E-05,  avg # of iterations =  2.0

     total cpu time spent up to now is        0.7 secs

     total energy              =    -325.54666203 Ry
     estimated scf accuracy    <       0.00056878 Ry

     iteration #  3     ecut=    33.00 Ry     beta= 0.70
     Davidson diagonalization with overlap
     ethr =  2.03E-06,  avg # of iterations =  2.0

     total cpu time spent up to now is        0.7 secs

     total energy              =    -325.54672403 Ry
     estimated scf accuracy    <       0.00004149 Ry

     iteration #  4     ecut=    33.00 Ry     beta= 0.70
     Davidson diagonalization with overlap
     ethr =  1.48E-07,  avg # of iterations =  3.3

     total cpu time spent up to now is        0.7 secs

     total energy              =    -325.54673022 Ry
     estimated scf accuracy    <       0.00000061 Ry

     iteration #  5     ecut=    33.00 Ry     beta= 0.70
     Davidson diagonalization with overlap
     ethr =  2.17E-09,  avg # of iterations =  3.6

     total cpu time spent up to now is        0.7 secs

     End of self-consistent calculation

          k = 0.0000 0.0000 0.0000 (  1173 PWs)   bands (ev):

   -10.7912 -10.7088 -10.6628 -10.6531 -10.5018 -10.5018 -10.4897 -10.4897
   -10.3975 -10.2859  -0.3481   7.1576   8.8404   8.8404

          k =-0.2500 0.0000 0.4582 (  1170 PWs)   bands (ev):

   -10.7553 -10.6253 -10.6215 -10.5801 -10.5580 -10.5164 -10.5078 -10.4845
   -10.4181 -10.3210   0.8900   6.5812   9.0452  11.2834

          k = 0.5000 0.0000-0.9164 (  1158 PWs)   bands (ev):

   -10.7155 -10.6450 -10.6278 -10.5876 -10.5528 -10.5496 -10.4506 -10.4042
   -10.3996 -10.3536   3.8513   5.3950   8.4860   9.1153

          k =-0.2500 0.2500 0.9164 (  1162 PWs)   bands (ev):

   -10.7300 -10.6411 -10.5975 -10.5801 -10.5781 -10.5277 -10.4682 -10.4482
   -10.3714 -10.3449   3.7369   6.0488   7.1243   9.1093

          k = 0.5000 0.2500-0.4582 (  1174 PWs)   bands (ev):

   -10.6981 -10.6384 -10.6346 -10.5801 -10.5623 -10.5055 -10.4712 -10.4639
   -10.4466 -10.3828   2.0023   4.1395   9.3960  10.6293

          k = 0.2500 0.2500 0.0000 (  1196 PWs)   bands (ev):

   -10.7421 -10.7151 -10.6795 -10.6210 -10.5294 -10.4811 -10.4798 -10.4716
   -10.4269 -10.3356   0.2165   4.5862   9.5073  10.5376

          k = 0.5000-0.5000-1.8328 (  1158 PWs)   bands (ev):

   -10.7109 -10.7109 -10.6225 -10.6225 -10.5272 -10.5272 -10.4565 -10.4565
   -10.4176 -10.4176   1.8995   1.8995  11.4197  11.4197

          k = 0.0000 0.0000 0.9164 (  1145 PWs)   bands (ev):

   -10.7202 -10.6128 -10.6128 -10.5918 -10.5465 -10.5465 -10.5226 -10.4293
   -10.3736 -10.3294   3.2938   7.1405   7.9736   9.4602

          k = 0.7500 0.0000-0.4582 (  1162 PWs)   bands (ev):

   -10.6851 -10.6424 -10.5797 -10.5696 -10.5349 -10.5183 -10.5075 -10.4696
   -10.4649 -10.4086   3.0212   4.3576   7.2634   8.4581

          k = 0.5000 0.0000 0.0000 (  1172 PWs)   bands (ev):

   -10.7271 -10.6970 -10.6848 -10.5891 -10.5059 -10.4986 -10.4933 -10.4511
   -10.4477 -10.3801   0.7790   4.3523   7.0814  10.7935

          k = 0.7500-0.7500-1.8328 (  1166 PWs)   bands (ev):

   -10.7175 -10.7175 -10.5853 -10.5853 -10.5192 -10.5192 -10.4709 -10.4709
   -10.4425 -10.4425   2.4037   2.4037   7.9926   7.9926

          k = 0.5000-0.5000-0.9164 (  1172 PWs)   bands (ev):

   -10.6941 -10.6941 -10.6224 -10.6224 -10.5135 -10.5135 -10.4211 -10.4211
   -10.3925 -10.3925   4.8035   4.8035   7.2828   7.2828

          k = 0.0000 0.0000-1.8328 (  1162 PWs)   bands (ev):

   -10.7206 -10.7206 -10.5215 -10.5215 -10.5086 -10.5086 -10.4993 -10.4993
   -10.4849 -10.4849   3.2409   3.2409   6.0135   6.0135

     highest occupied level (ev):    11.4197

!    total energy              =    -325.54673042 Ry
     estimated scf accuracy    <       0.00000007 Ry

     The total energy is the sum of the following terms:
     one-electron contribution =    -107.27479665 Ry
     hartree contribution      =      74.46739186 Ry
     xc contribution           =     -95.22402242 Ry
     ewald contribution        =    -197.51530322 Ry

     convergence has been achieved in   5 iterations

     Writing all to output data dir ./beta-sn-scf/betatin.save/ :
     XML data file, charge density, pseudopotentials, collected wavefunctions

     init_run     :      0.21s CPU      0.28s WALL (       1 calls)
     electrons    :      0.12s CPU      0.16s WALL (       1 calls)

     Called by init_run:
     wfcinit      :      0.03s CPU      0.04s WALL (       1 calls)
     potinit      :      0.01s CPU      0.02s WALL (       1 calls)
     hinit0       :      0.16s CPU      0.18s WALL (       1 calls)

     Called by electrons:
     c_bands      :      0.07s CPU      0.09s WALL (       6 calls)
     sum_band     :      0.02s CPU      0.03s WALL (       6 calls)
     v_of_rho     :      0.01s CPU      0.02s WALL (       6 calls)
     newd         :      0.00s CPU      0.00s WALL (       6 calls)
     mix_rho      :      0.00s CPU      0.00s WALL (       6 calls)

     Called by c_bands:
     init_us_2    :      0.00s CPU      0.00s WALL (      26 calls)
     cegterg      :      0.06s CPU      0.07s WALL (      12 calls)

     Called by *egterg:
     cdiaghg      :      0.01s CPU      0.02s WALL (      50 calls)
     h_psi        :      0.06s CPU      0.08s WALL (      54 calls)
     s_psi        :      0.00s CPU      0.00s WALL (      54 calls)
     g_psi        :      0.00s CPU      0.00s WALL (      40 calls)

     Called by h_psi:
     h_psi:calbec :      0.00s CPU      0.01s WALL (      54 calls)
     vloc_psi     :      0.06s CPU      0.07s WALL (      54 calls)
     add_vuspsi   :      0.00s CPU      0.00s WALL (      54 calls)

     General routines
     calbec       :      0.00s CPU      0.00s WALL (      66 calls)
     fft          :      0.15s CPU      0.15s WALL (      67 calls)
     ffts         :      0.00s CPU      0.00s WALL (       6 calls)
     fftw         :      0.06s CPU      0.07s WALL (    1080 calls)

     Parallel routines

     PWSCF        :      0.55s CPU      0.81s WALL


   This run was terminated on:  16: 6:14   5Feb2026            

=------------------------------------------------------------------------------=
   JOB DONE.
=------------------------------------------------------------------------------=
