
     Program PWSCF v.7.3.1 starts on  5Feb2026 at 16:23:25 

     This program is part of the open-source Quantum ESPRESSO suite
     for quantum simulation of materials; please cite
         "P. Giannozzi et al., J. Phys.:Condens. Matter 21 395502 (2009);
         "P. Giannozzi et al., J. Phys.:Condens. Matter 29 465901 (2017);
         "P. Giannozzi et al., J. Chem. Phys. 152 154105 (2020);
          URL http://www.quantum-espresso.org", 
     in publications or presentations arising from this work. More details at
     http://www.quantum-espresso.org/quote

     Parallel version (MPI), running on   128 processors

     MPI processes distributed on     1 nodes
     241369 MiB available memory on the printing compute node when the environment starts

     Waiting for input...
     Reading input from standard input

     Current dimensions of program PWSCF are:
     Max number of different atomic species (ntypx) = 10
     Max number of k-points (npk) =  40000
     Max angular momentum in pseudopotentials (lmaxx) =  4

     K-points division:     npool     =       4
     R & G space division:  proc/nbgrp/npool/nimage =      32
     Subspace diagonalization in iterative solution of the eigenvalue problem:
     a serial algorithm will be used


     Parallelization info
     --------------------
     sticks:   dense  smooth     PW     G-vecs:    dense   smooth      PW
     Min          90      90     27                 2313     2313     389
     Max          91      91     28                 2315     2315     391
     Sum        2889    2889    883                74045    74045   12485

     Using Slab Decomposition



     bravais-lattice index     =            7
     lattice parameter (alat)  =      11.0200  a.u.
     unit-cell volume          =     365.0809 (a.u.)^3
     number of atoms/cell      =            2
     number of atomic types    =            1
     number of electrons       =        28.00
     number of Kohn-Sham states=           14
     kinetic-energy cutoff     =     131.0000  Ry
     charge density cutoff     =     524.0000  Ry
     scf convergence threshold =      1.0E-07
     mixing beta               =       0.7000
     number of iterations used =            8  plain     mixing
     Exchange-correlation=  SLA  PW   GGX  GGC
                           (   1   4   2   2   0   0   0)

     celldm(1)=  11.020000  celldm(2)=   0.000000  celldm(3)=   0.545600
     celldm(4)=   0.000000  celldm(5)=   0.000000  celldm(6)=   0.000000

     crystal axes: (cart. coord. in units of alat)
               a(1) = (   0.500000  -0.500000   0.272800 )  
               a(2) = (   0.500000   0.500000   0.272800 )  
               a(3) = (  -0.500000  -0.500000   0.272800 )  

     reciprocal axes: (cart. coord. in units 2 pi/alat)
               b(1) = (  1.000000 -1.000000  0.000000 )  
               b(2) = (  0.000000  1.000000  1.832845 )  
               b(3) = ( -1.000000  0.000000  1.832845 )  


     PseudoPot. # 1 for Sn read from file:
     ./Sn.pw91-n-van.UPF
     MD5 check sum: a38d2a872edd1a4efd76c0a1a38f7031
     Pseudo is Ultrasoft + core correction, Zval = 14.0
     Generated by new atomic code, or converted to UPF format
     Using radial grid of  891 points,  6 beta functions with: 
                l(1) =   0
                l(2) =   0
                l(3) =   1
                l(4) =   1
                l(5) =   2
                l(6) =   2
     Q(r) pseudized with  8 coefficients,  rinner =    1.100   1.100   1.100
                                                       1.100   1.100

     atomic species   valence    mass     pseudopotential
     Sn               14.00   118.70000     Sn( 1.00)

     16 Sym. Ops., with inversion, found (12 have fractional translation)



   Cartesian axes

     site n.     atom                  positions (alat units)
         1        Sn     tau(   1) = (   0.0000000  -0.2500000   0.0682000  )
         2        Sn     tau(   2) = (   0.0000000   0.2500000  -0.0682000  )

     number of k points=    13
                       cart. coord. in units 2pi/alat
        k(    1) = (   0.0000000   0.0000000   0.0000000), wk =   0.0312500
        k(    2) = (  -0.2500000   0.0000000   0.4582111), wk =   0.2500000
        k(    3) = (   0.5000000   0.0000000  -0.9164223), wk =   0.1250000
        k(    4) = (  -0.2500000   0.2500000   0.9164223), wk =   0.2500000
        k(    5) = (   0.5000000   0.2500000  -0.4582111), wk =   0.5000000
        k(    6) = (   0.2500000   0.2500000   0.0000000), wk =   0.1250000
        k(    7) = (   0.5000000  -0.5000000  -1.8328446), wk =   0.0625000
        k(    8) = (   0.0000000   0.0000000   0.9164223), wk =   0.0625000
        k(    9) = (   0.7500000   0.0000000  -0.4582111), wk =   0.2500000
        k(   10) = (   0.5000000   0.0000000   0.0000000), wk =   0.1250000
        k(   11) = (   0.7500000  -0.7500000  -1.8328446), wk =   0.1250000
        k(   12) = (   0.5000000  -0.5000000  -0.9164223), wk =   0.0625000
        k(   13) = (   0.0000000   0.0000000  -1.8328446), wk =   0.0312500

     Dense  grid:    74045 G-vectors     FFT dimensions: (  64,  64,  64)

     Estimated max dynamical RAM per process >       5.51 MB

     Estimated total dynamical RAM >     651.29 MB

     Initial potential from superposition of free atoms

     starting charge      27.9964, renormalised to      28.0000
     Starting wfcs are   18 randomized atomic wfcs

     total cpu time spent up to now is        0.8 secs

     per-process dynamical memory:    11.9 Mb

     Self-consistent Calculation

     iteration #  1     ecut=   131.00 Ry     beta= 0.70
     Davidson diagonalization with overlap
     ethr =  1.00E-02,  avg # of iterations =  1.8

     Threshold (ethr) on eigenvalues was too large:
     Diagonalizing with lowered threshold

     Davidson diagonalization with overlap
     ethr =  2.37E-05,  avg # of iterations =  3.8

     total cpu time spent up to now is        1.0 secs

     total energy              =    -325.57987318 Ry
     estimated scf accuracy    <       0.00687145 Ry

     iteration #  2     ecut=   131.00 Ry     beta= 0.70
     Davidson diagonalization with overlap
     ethr =  2.45E-05,  avg # of iterations =  2.0

     total cpu time spent up to now is        1.1 secs

     total energy              =    -325.58091788 Ry
     estimated scf accuracy    <       0.00054931 Ry

     iteration #  3     ecut=   131.00 Ry     beta= 0.70
     Davidson diagonalization with overlap
     ethr =  1.96E-06,  avg # of iterations =  2.5

     total cpu time spent up to now is        1.2 secs

     total energy              =    -325.58099402 Ry
     estimated scf accuracy    <       0.00004199 Ry

     iteration #  4     ecut=   131.00 Ry     beta= 0.70
     Davidson diagonalization with overlap
     ethr =  1.50E-07,  avg # of iterations =  2.3

     total cpu time spent up to now is        1.3 secs

     total energy              =    -325.58099781 Ry
     estimated scf accuracy    <       0.00000022 Ry

     iteration #  5     ecut=   131.00 Ry     beta= 0.70
     Davidson diagonalization with overlap
     ethr =  7.94E-10,  avg # of iterations =  4.9

     total cpu time spent up to now is        1.4 secs

     End of self-consistent calculation

          k = 0.0000 0.0000 0.0000 (  9203 PWs)   bands (ev):

   -10.8083 -10.7256 -10.6818 -10.6702 -10.5203 -10.5203 -10.5093 -10.5093
   -10.4172 -10.3049  -0.3472   7.1615   8.8398   8.8398

          k =-0.2500 0.0000 0.4582 (  9252 PWs)   bands (ev):

   -10.7725 -10.6446 -10.6400 -10.5987 -10.5763 -10.5350 -10.5265 -10.5036
   -10.4382 -10.3395   0.8911   6.5841   9.0441  11.2833

          k = 0.5000 0.0000-0.9164 (  9272 PWs)   bands (ev):

   -10.7332 -10.6627 -10.6459 -10.6066 -10.5724 -10.5696 -10.4706 -10.4235
   -10.4199 -10.3731   3.8534   5.3957   8.4875   9.1143

          k =-0.2500 0.2500 0.9164 (  9254 PWs)   bands (ev):

   -10.7471 -10.6592 -10.6161 -10.5989 -10.5972 -10.5465 -10.4879 -10.4683
   -10.3920 -10.3641   3.7388   6.0511   7.1233   9.1084

          k = 0.5000 0.2500-0.4582 (  9245 PWs)   bands (ev):

   -10.7158 -10.6564 -10.6527 -10.5987 -10.5815 -10.5243 -10.4906 -10.4830
   -10.4658 -10.4013   2.0035   4.1411   9.3956  10.6281

          k = 0.2500 0.2500 0.0000 (  9220 PWs)   bands (ev):

   -10.7584 -10.7324 -10.6971 -10.6400 -10.5470 -10.4997 -10.4979 -10.4900
   -10.4466 -10.3535   0.2175   4.5878   9.5064  10.5378

          k = 0.5000-0.5000-1.8328 (  9240 PWs)   bands (ev):

   -10.7289 -10.7289 -10.6412 -10.6412 -10.5470 -10.5470 -10.4756 -10.4756
   -10.4364 -10.4364   1.9007   1.9007  11.4184  11.4184

          k = 0.0000 0.0000 0.9164 (  9243 PWs)   bands (ev):

   -10.7388 -10.6308 -10.6308 -10.6112 -10.5666 -10.5666 -10.5426 -10.4491
   -10.3943 -10.3484   3.2955   7.1433   7.9731   9.4590

          k = 0.7500 0.0000-0.4582 (  9236 PWs)   bands (ev):

   -10.7030 -10.6607 -10.5981 -10.5886 -10.5541 -10.5375 -10.5266 -10.4899
   -10.4836 -10.4274   3.0226   4.3599   7.2618   8.4574

          k = 0.5000 0.0000 0.0000 (  9224 PWs)   bands (ev):

   -10.7443 -10.7147 -10.7028 -10.6085 -10.5245 -10.5166 -10.5128 -10.4698
   -10.4676 -10.3985   0.7800   4.3544   7.0799  10.7927

          k = 0.7500-0.7500-1.8328 (  9224 PWs)   bands (ev):

   -10.7354 -10.7354 -10.6032 -10.6032 -10.5392 -10.5392 -10.4899 -10.4899
   -10.4611 -10.4611   2.4050   2.4050   7.9918   7.9918

          k = 0.5000-0.5000-0.9164 (  9244 PWs)   bands (ev):

   -10.7112 -10.7112 -10.6409 -10.6409 -10.5331 -10.5331 -10.4396 -10.4396
   -10.4127 -10.4127   4.8060   4.8060   7.2811   7.2811

          k = 0.0000 0.0000-1.8328 (  9274 PWs)   bands (ev):

   -10.7383 -10.7383 -10.5393 -10.5393 -10.5290 -10.5290 -10.5175 -10.5175
   -10.5050 -10.5050   3.2427   3.2427   6.0121   6.0121

     highest occupied level (ev):    11.4184

!    total energy              =    -325.58099819 Ry
     estimated scf accuracy    <          5.9E-09 Ry

     The total energy is the sum of the following terms:
     one-electron contribution =    -107.31810374 Ry
     hartree contribution      =      74.47424057 Ry
     xc contribution           =     -95.22183181 Ry
     ewald contribution        =    -197.51530320 Ry

     convergence has been achieved in   5 iterations

     Writing all to output data dir ./beta-sn-scf/betatin.save/ :
     XML data file, charge density, pseudopotentials, collected wavefunctions

     init_run     :      0.43s CPU      0.51s WALL (       1 calls)
     electrons    :      0.52s CPU      0.59s WALL (       1 calls)

     Called by init_run:
     wfcinit      :      0.08s CPU      0.10s WALL (       1 calls)
     potinit      :      0.01s CPU      0.03s WALL (       1 calls)
     hinit0       :      0.29s CPU      0.31s WALL (       1 calls)

     Called by electrons:
     c_bands      :      0.35s CPU      0.38s WALL (       6 calls)
     sum_band     :      0.09s CPU      0.10s WALL (       6 calls)
     v_of_rho     :      0.04s CPU      0.06s WALL (       6 calls)
     newd         :      0.02s CPU      0.03s WALL (       6 calls)
     mix_rho      :      0.01s CPU      0.01s WALL (       6 calls)

     Called by c_bands:
     init_us_2    :      0.01s CPU      0.01s WALL (      52 calls)
     cegterg      :      0.33s CPU      0.35s WALL (      24 calls)

     Called by *egterg:
     cdiaghg      :      0.03s CPU      0.03s WALL (     104 calls)
     h_psi        :      0.33s CPU      0.36s WALL (     112 calls)
     s_psi        :      0.00s CPU      0.01s WALL (     112 calls)
     g_psi        :      0.00s CPU      0.00s WALL (      84 calls)

     Called by h_psi:
     h_psi:calbec :      0.01s CPU      0.02s WALL (     112 calls)
     vloc_psi     :      0.31s CPU      0.34s WALL (     112 calls)
     add_vuspsi   :      0.01s CPU      0.01s WALL (     112 calls)

     General routines
     calbec       :      0.01s CPU      0.02s WALL (     136 calls)
     fft          :      0.28s CPU      0.29s WALL (      67 calls)
     ffts         :      0.00s CPU      0.00s WALL (       6 calls)
     fftw         :      0.34s CPU      0.36s WALL (    2240 calls)

     Parallel routines

     PWSCF        :      1.25s CPU      1.54s WALL


   This run was terminated on:  16:23:26   5Feb2026            

=------------------------------------------------------------------------------=
   JOB DONE.
=------------------------------------------------------------------------------=
