
     Program PWSCF v.7.3.1 starts on  4Feb2026 at 16: 5:29 

     This program is part of the open-source Quantum ESPRESSO suite
     for quantum simulation of materials; please cite
         "P. Giannozzi et al., J. Phys.:Condens. Matter 21 395502 (2009);
         "P. Giannozzi et al., J. Phys.:Condens. Matter 29 465901 (2017);
         "P. Giannozzi et al., J. Chem. Phys. 152 154105 (2020);
          URL http://www.quantum-espresso.org", 
     in publications or presentations arising from this work. More details at
     http://www.quantum-espresso.org/quote

     Parallel version (MPI), running on   128 processors

     MPI processes distributed on     1 nodes
     240123 MiB available memory on the printing compute node when the environment starts

     Waiting for input...
     Reading input from standard input
     Message from routine read_cards :
     DEPRECATED: no units specified in ATOMIC_POSITIONS card
     Message from routine read_cards :
     ATOMIC_POSITIONS: units set to alat

     Current dimensions of program PWSCF are:
     Max number of different atomic species (ntypx) = 10
     Max number of k-points (npk) =  40000
     Max angular momentum in pseudopotentials (lmaxx) =  4

     K-points division:     npool     =       4
     R & G space division:  proc/nbgrp/npool/nimage =      32
     Subspace diagonalization in iterative solution of the eigenvalue problem:
     a serial algorithm will be used


     Parallelization info
     --------------------
     sticks:   dense  smooth     PW     G-vecs:    dense   smooth      PW
     Min         244     244     65                14289    14289    1980
     Max         245     245     66                14294    14294    1981
     Sum        7813    7813   2095               457287   457287   63375

     Using Slab Decomposition



     bravais-lattice index     =            2
     lattice parameter (alat)  =      12.2300  a.u.
     unit-cell volume          =     457.3191 (a.u.)^3
     number of atoms/cell      =            2
     number of atomic types    =            1
     number of electrons       =        28.00
     number of Kohn-Sham states=           14
     kinetic-energy cutoff     =     380.0000  Ry
     charge density cutoff     =    1520.0000  Ry
     scf convergence threshold =      1.0E-07
     mixing beta               =       0.7000
     number of iterations used =            8  plain     mixing
     Exchange-correlation=  SLA  PW   GGX  GGC
                           (   1   4   2   2   0   0   0)

     celldm(1)=  12.230000  celldm(2)=   0.000000  celldm(3)=   0.000000
     celldm(4)=   0.000000  celldm(5)=   0.000000  celldm(6)=   0.000000

     crystal axes: (cart. coord. in units of alat)
               a(1) = (  -0.500000   0.000000   0.500000 )  
               a(2) = (   0.000000   0.500000   0.500000 )  
               a(3) = (  -0.500000   0.500000   0.000000 )  

     reciprocal axes: (cart. coord. in units 2 pi/alat)
               b(1) = ( -1.000000 -1.000000  1.000000 )  
               b(2) = (  1.000000  1.000000  1.000000 )  
               b(3) = ( -1.000000  1.000000 -1.000000 )  


     PseudoPot. # 1 for Sn read from file:
     ./Sn.pw91-n-van.UPF
     MD5 check sum: a38d2a872edd1a4efd76c0a1a38f7031
     Pseudo is Ultrasoft + core correction, Zval = 14.0
     Generated by new atomic code, or converted to UPF format
     Using radial grid of  891 points,  6 beta functions with: 
                l(1) =   0
                l(2) =   0
                l(3) =   1
                l(4) =   1
                l(5) =   2
                l(6) =   2
     Q(r) pseudized with  8 coefficients,  rinner =    1.100   1.100   1.100
                                                       1.100   1.100

     atomic species   valence    mass     pseudopotential
     Sn               14.00   118.70000     Sn( 1.00)

     48 Sym. Ops., with inversion, found (24 have fractional translation)



   Cartesian axes

     site n.     atom                  positions (alat units)
         1        Sn     tau(   1) = (   0.0000000   0.0000000   0.0000000  )
         2        Sn     tau(   2) = (   0.2500000   0.2500000   0.2500000  )

     number of k points=   145

     Number of k-points >= 100: set verbosity='high' to print them.

     Dense  grid:   457287 G-vectors     FFT dimensions: ( 108, 108, 108)

     Estimated max dynamical RAM per process >      38.17 MB

     Estimated total dynamical RAM >       4.44 GB

     Initial potential from superposition of free atoms

     starting charge      27.9964, renormalised to      28.0000

     negative rho (up, down):  2.695E-05 0.000E+00
     Starting wfcs are   18 randomized atomic wfcs

     total cpu time spent up to now is        2.7 secs

     per-process dynamical memory:    35.2 Mb

     Self-consistent Calculation

     iteration #  1     ecut=   380.00 Ry     beta= 0.70
     Davidson diagonalization with overlap
     ethr =  1.00E-02,  avg # of iterations =  3.0

     Threshold (ethr) on eigenvalues was too large:
     Diagonalizing with lowered threshold

     Davidson diagonalization with overlap
     ethr =  7.52E-05,  avg # of iterations =  4.0

     negative rho (up, down):  1.459E-05 0.000E+00

     total cpu time spent up to now is        9.8 secs

     total energy              =    -325.51807496 Ry
     estimated scf accuracy    <       0.02507084 Ry

     iteration #  2     ecut=   380.00 Ry     beta= 0.70
     Davidson diagonalization with overlap
     ethr =  8.95E-05,  avg # of iterations =  4.9

     negative rho (up, down):  8.697E-06 0.000E+00

     total cpu time spent up to now is       14.4 secs

     total energy              =    -325.61220317 Ry
     estimated scf accuracy    <       0.04824571 Ry

     iteration #  3     ecut=   380.00 Ry     beta= 0.70
     Davidson diagonalization with overlap
     ethr =  8.95E-05,  avg # of iterations =  2.0

     total cpu time spent up to now is       17.3 secs

     total energy              =    -325.64438822 Ry
     estimated scf accuracy    <       0.01917058 Ry

     iteration #  4     ecut=   380.00 Ry     beta= 0.70
     Davidson diagonalization with overlap
     ethr =  6.85E-05,  avg # of iterations =  2.1

     total cpu time spent up to now is       20.5 secs

     total energy              =    -325.65092241 Ry
     estimated scf accuracy    <       0.00007132 Ry

     iteration #  5     ecut=   380.00 Ry     beta= 0.70
     Davidson diagonalization with overlap
     ethr =  2.55E-07,  avg # of iterations =  4.2

     total cpu time spent up to now is       24.4 secs

     total energy              =    -325.65152814 Ry
     estimated scf accuracy    <       0.00010076 Ry

     iteration #  6     ecut=   380.00 Ry     beta= 0.70
     Davidson diagonalization with overlap
     ethr =  2.55E-07,  avg # of iterations =  2.0

     total cpu time spent up to now is       27.5 secs

     total energy              =    -325.65155912 Ry
     estimated scf accuracy    <       0.00000011 Ry

     iteration #  7     ecut=   380.00 Ry     beta= 0.70
     Davidson diagonalization with overlap
     ethr =  4.05E-10,  avg # of iterations =  5.1

     total cpu time spent up to now is       32.2 secs

     End of self-consistent calculation

     Number of k-points >= 100: set verbosity='high' to print the bands.

     highest occupied level (ev):     8.0237

!    total energy              =    -325.65156137 Ry
     estimated scf accuracy    <       0.00000007 Ry

     The total energy is the sum of the following terms:
     one-electron contribution =    -150.92293456 Ry
     hartree contribution      =      93.15520542 Ry
     xc contribution           =     -95.22440187 Ry
     ewald contribution        =    -172.65943036 Ry

     convergence has been achieved in   7 iterations

     Writing all to output data dir ./alpha-sn-scf/alphatin.save/ :
     XML data file, charge density, pseudopotentials, collected wavefunctions

     init_run     :      2.33s CPU      2.46s WALL (       1 calls)
     electrons    :     28.90s CPU     29.67s WALL (       1 calls)

     Called by init_run:
     wfcinit      :      1.33s CPU      1.36s WALL (       1 calls)
     potinit      :      0.06s CPU      0.09s WALL (       1 calls)
     hinit0       :      0.49s CPU      0.51s WALL (       1 calls)

     Called by electrons:
     c_bands      :     24.18s CPU     24.61s WALL (       8 calls)
     sum_band     :      4.11s CPU      4.19s WALL (       8 calls)
     v_of_rho     :      0.38s CPU      0.43s WALL (       8 calls)
     newd         :      0.18s CPU      0.20s WALL (       8 calls)
     mix_rho      :      0.05s CPU      0.06s WALL (       8 calls)

     Called by c_bands:
     init_us_2    :      0.54s CPU      0.57s WALL (     629 calls)
     cegterg      :     22.93s CPU     23.19s WALL (     296 calls)

     Called by *egterg:
     cdiaghg      :      0.53s CPU      0.54s WALL (    1395 calls)
     h_psi        :     20.76s CPU     21.02s WALL (    1469 calls)
     s_psi        :      0.41s CPU      0.41s WALL (    1469 calls)
     g_psi        :      0.06s CPU      0.06s WALL (    1136 calls)

     Called by h_psi:
     h_psi:calbec :      0.97s CPU      0.98s WALL (    1469 calls)
     vloc_psi     :     19.20s CPU     19.44s WALL (    1469 calls)
     add_vuspsi   :      0.47s CPU      0.47s WALL (    1469 calls)

     General routines
     calbec       :      1.11s CPU      1.12s WALL (    1765 calls)
     fft          :      0.66s CPU      0.71s WALL (      89 calls)
     ffts         :      0.02s CPU      0.03s WALL (       8 calls)
     fftw         :     19.70s CPU     19.94s WALL (   28134 calls)

     Parallel routines

     PWSCF        :     31.96s CPU     39.63s WALL


   This run was terminated on:  16: 6: 8   4Feb2026            

=------------------------------------------------------------------------------=
   JOB DONE.
=------------------------------------------------------------------------------=
