
     Program PWSCF v.7.3.1 starts on  4Feb2026 at 16: 2:30 

     This program is part of the open-source Quantum ESPRESSO suite
     for quantum simulation of materials; please cite
         "P. Giannozzi et al., J. Phys.:Condens. Matter 21 395502 (2009);
         "P. Giannozzi et al., J. Phys.:Condens. Matter 29 465901 (2017);
         "P. Giannozzi et al., J. Chem. Phys. 152 154105 (2020);
          URL http://www.quantum-espresso.org", 
     in publications or presentations arising from this work. More details at
     http://www.quantum-espresso.org/quote

     Parallel version (MPI), running on   128 processors

     MPI processes distributed on     1 nodes
     241518 MiB available memory on the printing compute node when the environment starts

     Waiting for input...
     Reading input from standard input
     Message from routine read_cards :
     DEPRECATED: no units specified in ATOMIC_POSITIONS card
     Message from routine read_cards :
     ATOMIC_POSITIONS: units set to alat

     Current dimensions of program PWSCF are:
     Max number of different atomic species (ntypx) = 10
     Max number of k-points (npk) =  40000
     Max angular momentum in pseudopotentials (lmaxx) =  4

     K-points division:     npool     =       4
     R & G space division:  proc/nbgrp/npool/nimage =      32
     Subspace diagonalization in iterative solution of the eigenvalue problem:
     a serial algorithm will be used


     Parallelization info
     --------------------
     sticks:   dense  smooth     PW     G-vecs:    dense   smooth      PW
     Min         244     244     65                14289    14289    1962
     Max         245     245     66                14294    14294    1968
     Sum        7813    7813   2083               457287   457287   62871

     Using Slab Decomposition



     bravais-lattice index     =            2
     lattice parameter (alat)  =      12.2300  a.u.
     unit-cell volume          =     457.3191 (a.u.)^3
     number of atoms/cell      =            2
     number of atomic types    =            1
     number of electrons       =        28.00
     number of Kohn-Sham states=           14
     kinetic-energy cutoff     =     380.0000  Ry
     charge density cutoff     =    1520.0000  Ry
     scf convergence threshold =      1.0E-07
     mixing beta               =       0.7000
     number of iterations used =            8  plain     mixing
     Exchange-correlation=  SLA  PW   GGX  GGC
                           (   1   4   2   2   0   0   0)

     celldm(1)=  12.230000  celldm(2)=   0.000000  celldm(3)=   0.000000
     celldm(4)=   0.000000  celldm(5)=   0.000000  celldm(6)=   0.000000

     crystal axes: (cart. coord. in units of alat)
               a(1) = (  -0.500000   0.000000   0.500000 )  
               a(2) = (   0.000000   0.500000   0.500000 )  
               a(3) = (  -0.500000   0.500000   0.000000 )  

     reciprocal axes: (cart. coord. in units 2 pi/alat)
               b(1) = ( -1.000000 -1.000000  1.000000 )  
               b(2) = (  1.000000  1.000000  1.000000 )  
               b(3) = ( -1.000000  1.000000 -1.000000 )  


     PseudoPot. # 1 for Sn read from file:
     ./Sn.pw91-n-van.UPF
     MD5 check sum: a38d2a872edd1a4efd76c0a1a38f7031
     Pseudo is Ultrasoft + core correction, Zval = 14.0
     Generated by new atomic code, or converted to UPF format
     Using radial grid of  891 points,  6 beta functions with: 
                l(1) =   0
                l(2) =   0
                l(3) =   1
                l(4) =   1
                l(5) =   2
                l(6) =   2
     Q(r) pseudized with  8 coefficients,  rinner =    1.100   1.100   1.100
                                                       1.100   1.100

     atomic species   valence    mass     pseudopotential
     Sn               14.00   118.70000     Sn( 1.00)

     48 Sym. Ops., with inversion, found (24 have fractional translation)



   Cartesian axes

     site n.     atom                  positions (alat units)
         1        Sn     tau(   1) = (   0.0000000   0.0000000   0.0000000  )
         2        Sn     tau(   2) = (   0.2500000   0.2500000   0.2500000  )

     number of k points=    29
                       cart. coord. in units 2pi/alat
        k(    1) = (   0.0000000   0.0000000   0.0000000), wk =   0.0039062
        k(    2) = (  -0.1250000   0.1250000  -0.1250000), wk =   0.0312500
        k(    3) = (  -0.2500000   0.2500000  -0.2500000), wk =   0.0312500
        k(    4) = (  -0.3750000   0.3750000  -0.3750000), wk =   0.0312500
        k(    5) = (   0.5000000  -0.5000000   0.5000000), wk =   0.0156250
        k(    6) = (   0.0000000   0.2500000   0.0000000), wk =   0.0234375
        k(    7) = (  -0.1250000   0.3750000  -0.1250000), wk =   0.0937500
        k(    8) = (  -0.2500000   0.5000000  -0.2500000), wk =   0.0937500
        k(    9) = (   0.6250000  -0.3750000   0.6250000), wk =   0.0937500
        k(   10) = (   0.5000000  -0.2500000   0.5000000), wk =   0.0937500
        k(   11) = (   0.3750000  -0.1250000   0.3750000), wk =   0.0937500
        k(   12) = (   0.2500000   0.0000000   0.2500000), wk =   0.0468750
        k(   13) = (   0.0000000   0.5000000   0.0000000), wk =   0.0234375
        k(   14) = (  -0.1250000   0.6250000  -0.1250000), wk =   0.0937500
        k(   15) = (   0.7500000  -0.2500000   0.7500000), wk =   0.0937500
        k(   16) = (   0.6250000  -0.1250000   0.6250000), wk =   0.0937500
        k(   17) = (   0.5000000   0.0000000   0.5000000), wk =   0.0468750
        k(   18) = (   0.0000000   0.7500000   0.0000000), wk =   0.0234375
        k(   19) = (   0.8750000  -0.1250000   0.8750000), wk =   0.0937500
        k(   20) = (   0.7500000   0.0000000   0.7500000), wk =   0.0468750
        k(   21) = (   0.0000000  -1.0000000   0.0000000), wk =   0.0117188
        k(   22) = (  -0.2500000   0.5000000   0.0000000), wk =   0.0937500
        k(   23) = (   0.6250000  -0.3750000   0.8750000), wk =   0.1875000
        k(   24) = (   0.5000000  -0.2500000   0.7500000), wk =   0.0937500
        k(   25) = (   0.7500000  -0.2500000   1.0000000), wk =   0.0937500
        k(   26) = (   0.6250000  -0.1250000   0.8750000), wk =   0.1875000
        k(   27) = (   0.5000000   0.0000000   0.7500000), wk =   0.0937500
        k(   28) = (  -0.2500000  -1.0000000   0.0000000), wk =   0.0468750
        k(   29) = (  -0.5000000  -1.0000000   0.0000000), wk =   0.0234375

     Dense  grid:   457287 G-vectors     FFT dimensions: ( 108, 108, 108)

     Estimated max dynamical RAM per process >      27.10 MB

     Estimated total dynamical RAM >       3.06 GB

     Initial potential from superposition of free atoms

     starting charge      27.9964, renormalised to      28.0000

     negative rho (up, down):  2.695E-05 0.000E+00
     Starting wfcs are   18 randomized atomic wfcs

     total cpu time spent up to now is        1.7 secs

     per-process dynamical memory:    26.3 Mb

     Self-consistent Calculation

     iteration #  1     ecut=   380.00 Ry     beta= 0.70
     Davidson diagonalization with overlap
     ethr =  1.00E-02,  avg # of iterations =  2.8

     Threshold (ethr) on eigenvalues was too large:
     Diagonalizing with lowered threshold

     Davidson diagonalization with overlap
     ethr =  7.14E-05,  avg # of iterations =  4.1

     negative rho (up, down):  1.446E-05 0.000E+00

     total cpu time spent up to now is        3.4 secs

     total energy              =    -325.51586985 Ry
     estimated scf accuracy    <       0.02475092 Ry

     iteration #  2     ecut=   380.00 Ry     beta= 0.70
     Davidson diagonalization with overlap
     ethr =  8.84E-05,  avg # of iterations =  4.7

     negative rho (up, down):  8.491E-06 0.000E+00

     total cpu time spent up to now is        4.5 secs

     total energy              =    -325.60872359 Ry
     estimated scf accuracy    <       0.04719719 Ry

     iteration #  3     ecut=   380.00 Ry     beta= 0.70
     Davidson diagonalization with overlap
     ethr =  8.84E-05,  avg # of iterations =  1.9

     total cpu time spent up to now is        5.2 secs

     total energy              =    -325.64093087 Ry
     estimated scf accuracy    <       0.01872356 Ry

     iteration #  4     ecut=   380.00 Ry     beta= 0.70
     Davidson diagonalization with overlap
     ethr =  6.69E-05,  avg # of iterations =  2.3

     total cpu time spent up to now is        6.0 secs

     total energy              =    -325.64948955 Ry
     estimated scf accuracy    <       0.00005871 Ry

     iteration #  5     ecut=   380.00 Ry     beta= 0.70
     Davidson diagonalization with overlap
     ethr =  2.10E-07,  avg # of iterations =  4.4

     total cpu time spent up to now is        7.0 secs

     total energy              =    -325.65075262 Ry
     estimated scf accuracy    <       0.00012222 Ry

     iteration #  6     ecut=   380.00 Ry     beta= 0.70
     Davidson diagonalization with overlap
     ethr =  2.10E-07,  avg # of iterations =  2.1

     total cpu time spent up to now is        7.9 secs

     total energy              =    -325.65082709 Ry
     estimated scf accuracy    <       0.00000128 Ry

     iteration #  7     ecut=   380.00 Ry     beta= 0.70
     Davidson diagonalization with overlap
     ethr =  4.59E-09,  avg # of iterations =  3.5

     total cpu time spent up to now is        8.7 secs

     End of self-consistent calculation

          k = 0.0000 0.0000 0.0000 ( 57001 PWs)   bands (ev):

   -13.7699 -13.7699 -13.7699 -13.7095 -13.7095 -13.3931 -13.3931 -13.3931
   -13.3840 -13.3840  -2.7357   7.2955   8.0269   8.0269

          k =-0.1250 0.1250-0.1250 ( 57218 PWs)   bands (ev):

   -13.7810 -13.7810 -13.7661 -13.6939 -13.6939 -13.4158 -13.4158 -13.3980
   -13.3641 -13.3641  -2.5836   5.7570   7.7393   7.7393

          k =-0.2500 0.2500-0.2500 ( 57191 PWs)   bands (ev):

   -13.7960 -13.7960 -13.7567 -13.6689 -13.6689 -13.4384 -13.4384 -13.4100
   -13.3473 -13.3473  -2.1439   3.8824   7.2670   7.2670

          k =-0.3750 0.3750-0.3750 ( 57218 PWs)   bands (ev):

   -13.8045 -13.8045 -13.7468 -13.6525 -13.6525 -13.4511 -13.4511 -13.4225
   -13.3382 -13.3382  -1.5083   2.3255   6.9291   6.9291

          k = 0.5000-0.5000 0.5000 ( 57200 PWs)   bands (ev):

   -13.8068 -13.8068 -13.7426 -13.6476 -13.6476 -13.4545 -13.4545 -13.4279
   -13.3356 -13.3356  -1.0983   1.6009   6.8107   6.8107

          k = 0.0000 0.2500 0.0000 ( 57202 PWs)   bands (ev):

   -13.7787 -13.7787 -13.7779 -13.6968 -13.6772 -13.4476 -13.3962 -13.3806
   -13.3806 -13.3587  -2.5319   5.6605   7.2967   7.2967

          k =-0.1250 0.3750-0.1250 ( 57183 PWs)   bands (ev):

   -13.7997 -13.7910 -13.7635 -13.6767 -13.6484 -13.4785 -13.4197 -13.3882
   -13.3600 -13.3425  -2.1837   4.2588   6.7371   6.8217

          k =-0.2500 0.5000-0.2500 ( 57231 PWs)   bands (ev):

   -13.8163 -13.8027 -13.7414 -13.6541 -13.6297 -13.4928 -13.4435 -13.4139
   -13.3429 -13.3250  -1.5921   2.7147   6.1665   6.5459

          k = 0.6250-0.3750 0.6250 ( 57237 PWs)   bands (ev):

   -13.8237 -13.8101 -13.7232 -13.6368 -13.6314 -13.4830 -13.4634 -13.4380
   -13.3317 -13.3175  -1.0150   1.6679   5.7919   6.5317

          k = 0.5000-0.2500 0.5000 ( 57244 PWs)   bands (ev):

   -13.8205 -13.8128 -13.7215 -13.6465 -13.6293 -13.4756 -13.4552 -13.4486
   -13.3270 -13.3228  -1.1715   1.9233   5.6882   6.7758

          k = 0.3750-0.1250 0.3750 ( 57211 PWs)   bands (ev):

   -13.8088 -13.8074 -13.7384 -13.6641 -13.6401 -13.4701 -13.4467 -13.4176
   -13.3407 -13.3304  -1.8132   3.2057   5.9129   7.2194

          k = 0.2500 0.0000 0.2500 ( 57181 PWs)   bands (ev):

   -13.7965 -13.7885 -13.7594 -13.6830 -13.6674 -13.4465 -13.4308 -13.3875
   -13.3674 -13.3432  -2.3337   4.7042   6.5974   7.6839

          k = 0.0000 0.5000 0.0000 ( 57154 PWs)   bands (ev):

   -13.7981 -13.7981 -13.7734 -13.6609 -13.6117 -13.5253 -13.4308 -13.3629
   -13.3520 -13.3520  -1.9269   3.7663   6.3256   6.3256

          k =-0.1250 0.6250-0.1250 ( 57174 PWs)   bands (ev):

   -13.8183 -13.8083 -13.7462 -13.6355 -13.5820 -13.5563 -13.4570 -13.3969
   -13.3361 -13.3238  -1.4014   2.6732   5.6745   6.0285

          k = 0.7500-0.2500 0.7500 ( 57219 PWs)   bands (ev):

   -13.8367 -13.8162 -13.7096 -13.6102 -13.5815 -13.5534 -13.4855 -13.4373
   -13.3237 -13.3026  -0.7502   1.6370   4.9895   6.0087

          k = 0.6250-0.1250 0.6250 ( 57222 PWs)   bands (ev):

   -13.8416 -13.8202 -13.6918 -13.6072 -13.5942 -13.5218 -13.5068 -13.4573
   -13.3177 -13.2979  -0.6303   1.4768   4.6641   6.2688

          k = 0.5000 0.0000 0.5000 ( 57231 PWs)   bands (ev):

   -13.8301 -13.8181 -13.7039 -13.6447 -13.6072 -13.4994 -13.4691 -13.4543
   -13.3198 -13.3129  -1.2373   2.3291   4.9002   6.7423

          k = 0.0000 0.7500 0.0000 ( 57214 PWs)   bands (ev):

   -13.8155 -13.8155 -13.7421 -13.6090 -13.6075 -13.5351 -13.4829 -13.3991
   -13.3253 -13.3253  -0.9420   1.9789   5.6784   5.6784

          k = 0.8750-0.1250 0.8750 ( 57199 PWs)   bands (ev):

   -13.8307 -13.8207 -13.7042 -13.6336 -13.5776 -13.5139 -13.5099 -13.4398
   -13.3171 -13.3072  -0.2809   1.1294   5.1122   5.6022

          k = 0.7500 0.0000 0.7500 ( 57235 PWs)   bands (ev):

   -13.8448 -13.8227 -13.6833 -13.5981 -13.5619 -13.5417 -13.5337 -13.4611
   -13.3142 -13.2928  -0.0251   0.8695   4.5361   5.8168

          k = 0.0000-1.0000 0.0000 ( 57162 PWs)   bands (ev):

   -13.8222 -13.8222 -13.6850 -13.6850 -13.5449 -13.5449 -13.4601 -13.4601
   -13.3146 -13.3146   0.3816   0.3816   5.4551   5.4551

          k =-0.2500 0.5000 0.0000 ( 57167 PWs)   bands (ev):

   -13.8108 -13.8093 -13.7430 -13.6574 -13.6177 -13.5109 -13.4392 -13.4070
   -13.3386 -13.3296  -1.7490   3.2654   5.6932   6.6586

          k = 0.6250-0.3750 0.8750 ( 57207 PWs)   bands (ev):

   -13.8295 -13.8179 -13.7107 -13.6351 -13.5986 -13.5252 -13.4639 -13.4438
   -13.3224 -13.3115  -1.1116   2.1044   5.1288   6.2751

          k = 0.5000-0.2500 0.7500 ( 57228 PWs)   bands (ev):

   -13.8372 -13.8203 -13.6957 -13.6186 -13.6004 -13.5191 -13.4876 -13.4565
   -13.3189 -13.3025  -0.6822   1.4644   4.9716   6.1032

          k = 0.7500-0.2500 1.0000 ( 57198 PWs)   bands (ev):

   -13.8266 -13.8246 -13.7125 -13.6086 -13.5879 -13.5508 -13.4854 -13.4321
   -13.3145 -13.3135  -0.8114   1.8092   5.1647   5.6432

          k = 0.6250-0.1250 0.8750 ( 57212 PWs)   bands (ev):

   -13.8421 -13.8288 -13.6743 -13.5923 -13.5811 -13.5456 -13.5166 -13.4692
   -13.3090 -13.2958  -0.2033   1.0778   4.6832   5.4952

          k = 0.5000 0.0000 0.7500 ( 57208 PWs)   bands (ev):

   -13.8427 -13.8274 -13.6765 -13.6017 -13.5652 -13.5578 -13.5096 -13.4684
   -13.3103 -13.2960  -0.4652   1.3753   4.5702   5.7816

          k =-0.2500-1.0000 0.0000 ( 57242 PWs)   bands (ev):

   -13.8320 -13.8320 -13.6588 -13.6588 -13.5470 -13.5470 -13.4840 -13.4840
   -13.3051 -13.3051   0.4111   0.4111   5.1308   5.1308

          k =-0.5000-1.0000 0.0000 ( 57216 PWs)   bands (ev):

   -13.8401 -13.8401 -13.6263 -13.6263 -13.5542 -13.5542 -13.5091 -13.5091
   -13.2971 -13.2971   0.4417   0.4417   4.8708   4.8708

     highest occupied level (ev):     8.0269

!    total energy              =    -325.65082929 Ry
     estimated scf accuracy    <       0.00000004 Ry

     The total energy is the sum of the following terms:
     one-electron contribution =    -150.92812972 Ry
     hartree contribution      =      93.16167146 Ry
     xc contribution           =     -95.22494067 Ry
     ewald contribution        =    -172.65943036 Ry

     convergence has been achieved in   7 iterations

     Writing all to output data dir ./alpha-sn-scf/alphatin.save/ :
     XML data file, charge density, pseudopotentials, collected wavefunctions

     init_run     :      1.31s CPU      1.41s WALL (       1 calls)
     electrons    :      6.88s CPU      7.58s WALL (       1 calls)

     Called by init_run:
     wfcinit      :      0.28s CPU      0.30s WALL (       1 calls)
     potinit      :      0.07s CPU      0.08s WALL (       1 calls)
     hinit0       :      0.49s CPU      0.51s WALL (       1 calls)

     Called by electrons:
     c_bands      :      5.14s CPU      5.22s WALL (       8 calls)
     sum_band     :      1.12s CPU      1.16s WALL (       8 calls)
     v_of_rho     :      0.40s CPU      0.42s WALL (       8 calls)
     newd         :      0.19s CPU      0.20s WALL (       8 calls)
     mix_rho      :      0.05s CPU      0.05s WALL (       8 calls)

     Called by c_bands:
     init_us_2    :      0.12s CPU      0.13s WALL (     136 calls)
     cegterg      :      4.80s CPU      4.86s WALL (      64 calls)

     Called by *egterg:
     cdiaghg      :      0.11s CPU      0.11s WALL (     291 calls)
     h_psi        :      4.37s CPU      4.43s WALL (     307 calls)
     s_psi        :      0.08s CPU      0.09s WALL (     307 calls)
     g_psi        :      0.01s CPU      0.01s WALL (     235 calls)

     Called by h_psi:
     h_psi:calbec :      0.20s CPU      0.21s WALL (     307 calls)
     vloc_psi     :      4.04s CPU      4.09s WALL (     307 calls)
     add_vuspsi   :      0.10s CPU      0.10s WALL (     307 calls)

     General routines
     calbec       :      0.24s CPU      0.24s WALL (     371 calls)
     fft          :      0.67s CPU      0.71s WALL (      89 calls)
     ffts         :      0.02s CPU      0.02s WALL (       8 calls)
     fftw         :      4.17s CPU      4.23s WALL (    5960 calls)

     Parallel routines

     PWSCF        :      8.52s CPU     10.33s WALL


   This run was terminated on:  16: 2:40   4Feb2026            

=------------------------------------------------------------------------------=
   JOB DONE.
=------------------------------------------------------------------------------=
