
     Program PWSCF v.7.3.1 starts on  4Feb2026 at 16: 1:10 

     This program is part of the open-source Quantum ESPRESSO suite
     for quantum simulation of materials; please cite
         "P. Giannozzi et al., J. Phys.:Condens. Matter 21 395502 (2009);
         "P. Giannozzi et al., J. Phys.:Condens. Matter 29 465901 (2017);
         "P. Giannozzi et al., J. Chem. Phys. 152 154105 (2020);
          URL http://www.quantum-espresso.org", 
     in publications or presentations arising from this work. More details at
     http://www.quantum-espresso.org/quote

     Parallel version (MPI), running on   128 processors

     MPI processes distributed on     1 nodes
     242313 MiB available memory on the printing compute node when the environment starts

     Waiting for input...
     Reading input from standard input
     Message from routine read_cards :
     DEPRECATED: no units specified in ATOMIC_POSITIONS card
     Message from routine read_cards :
     ATOMIC_POSITIONS: units set to alat

     Current dimensions of program PWSCF are:
     Max number of different atomic species (ntypx) = 10
     Max number of k-points (npk) =  40000
     Max angular momentum in pseudopotentials (lmaxx) =  4

     R & G space division:  proc/nbgrp/npool/nimage =     128
     WARNING: too many processors for an effective parallelization!
     wavefunctions fft division:  task group distribution
                                  #TG    x Z-proc =       8     16
     Subspace diagonalization in iterative solution of the eigenvalue problem:
     a serial algorithm will be used


     Parallelization info
     --------------------
     sticks:   dense  smooth     PW     G-vecs:    dense   smooth      PW
     Min          61      61     15                 3570     3570     443
     Max          62      62     16                 3576     3576     448
     Sum        7813    7813   1945               457287   457287   57001

     Using Pencil Decomposition



     bravais-lattice index     =            2
     lattice parameter (alat)  =      12.2300  a.u.
     unit-cell volume          =     457.3191 (a.u.)^3
     number of atoms/cell      =            2
     number of atomic types    =            1
     number of electrons       =        28.00
     number of Kohn-Sham states=           14
     kinetic-energy cutoff     =     380.0000  Ry
     charge density cutoff     =    1520.0000  Ry
     scf convergence threshold =      1.0E-07
     mixing beta               =       0.7000
     number of iterations used =            8  plain     mixing
     Exchange-correlation=  SLA  PW   GGX  GGC
                           (   1   4   2   2   0   0   0)

     celldm(1)=  12.230000  celldm(2)=   0.000000  celldm(3)=   0.000000
     celldm(4)=   0.000000  celldm(5)=   0.000000  celldm(6)=   0.000000

     crystal axes: (cart. coord. in units of alat)
               a(1) = (  -0.500000   0.000000   0.500000 )  
               a(2) = (   0.000000   0.500000   0.500000 )  
               a(3) = (  -0.500000   0.500000   0.000000 )  

     reciprocal axes: (cart. coord. in units 2 pi/alat)
               b(1) = ( -1.000000 -1.000000  1.000000 )  
               b(2) = (  1.000000  1.000000  1.000000 )  
               b(3) = ( -1.000000  1.000000 -1.000000 )  


     PseudoPot. # 1 for Sn read from file:
     ./Sn.pw91-n-van.UPF
     MD5 check sum: a38d2a872edd1a4efd76c0a1a38f7031
     Pseudo is Ultrasoft + core correction, Zval = 14.0
     Generated by new atomic code, or converted to UPF format
     Using radial grid of  891 points,  6 beta functions with: 
                l(1) =   0
                l(2) =   0
                l(3) =   1
                l(4) =   1
                l(5) =   2
                l(6) =   2
     Q(r) pseudized with  8 coefficients,  rinner =    1.100   1.100   1.100
                                                       1.100   1.100

     atomic species   valence    mass     pseudopotential
     Sn               14.00   118.70000     Sn( 1.00)

     48 Sym. Ops., with inversion, found (24 have fractional translation)



   Cartesian axes

     site n.     atom                  positions (alat units)
         1        Sn     tau(   1) = (   0.0000000   0.0000000   0.0000000  )
         2        Sn     tau(   2) = (   0.2500000   0.2500000   0.2500000  )

     number of k points=     1
                       cart. coord. in units 2pi/alat
        k(    1) = (   0.0000000   0.0000000   0.0000000), wk =   2.0000000

     Dense  grid:   457287 G-vectors     FFT dimensions: ( 108, 108, 108)

     Estimated max dynamical RAM per process >      16.01 MB

     Estimated total dynamical RAM >       2.00 GB

     Initial potential from superposition of free atoms

     starting charge      27.9964, renormalised to      28.0000

     negative rho (up, down):  2.695E-05 0.000E+00
     Starting wfcs are   18 randomized atomic wfcs

     total cpu time spent up to now is       11.1 secs

     per-process dynamical memory:    14.9 Mb

     Self-consistent Calculation

     iteration #  1     ecut=   380.00 Ry     beta= 0.70
     Davidson diagonalization with overlap
     ethr =  1.00E-02,  avg # of iterations =  3.0

     Threshold (ethr) on eigenvalues was too large:
     Diagonalizing with lowered threshold

     Davidson diagonalization with overlap
     ethr =  2.47E-04,  avg # of iterations =  2.0

     total cpu time spent up to now is       11.5 secs

     total energy              =    -324.47023800 Ry
     estimated scf accuracy    <       0.05801936 Ry

     iteration #  2     ecut=   380.00 Ry     beta= 0.70
     Davidson diagonalization with overlap
     ethr =  2.07E-04,  avg # of iterations =  2.0

     total cpu time spent up to now is       11.6 secs

     total energy              =    -324.47727486 Ry
     estimated scf accuracy    <       0.01152841 Ry

     iteration #  3     ecut=   380.00 Ry     beta= 0.70
     Davidson diagonalization with overlap
     ethr =  4.12E-05,  avg # of iterations =  3.0

     total cpu time spent up to now is       11.7 secs

     total energy              =    -324.48650554 Ry
     estimated scf accuracy    <       0.00042326 Ry

     iteration #  4     ecut=   380.00 Ry     beta= 0.70
     Davidson diagonalization with overlap
     ethr =  1.51E-06,  avg # of iterations =  4.0

     total cpu time spent up to now is       11.8 secs

     total energy              =    -324.48848246 Ry
     estimated scf accuracy    <       0.00006041 Ry

     iteration #  5     ecut=   380.00 Ry     beta= 0.70
     Davidson diagonalization with overlap
     ethr =  2.16E-07,  avg # of iterations =  3.0

     total cpu time spent up to now is       11.9 secs

     total energy              =    -324.48885912 Ry
     estimated scf accuracy    <       0.00003866 Ry

     iteration #  6     ecut=   380.00 Ry     beta= 0.70
     Davidson diagonalization with overlap
     ethr =  1.38E-07,  avg # of iterations =  2.0

     total cpu time spent up to now is       12.0 secs

     total energy              =    -324.48886762 Ry
     estimated scf accuracy    <       0.00000025 Ry

     iteration #  7     ecut=   380.00 Ry     beta= 0.70
     Davidson diagonalization with overlap
     ethr =  8.97E-10,  avg # of iterations = 11.0

     total cpu time spent up to now is       12.2 secs

     End of self-consistent calculation

          k = 0.0000 0.0000 0.0000 ( 57001 PWs)   bands (ev):

   -12.0124 -12.0124 -12.0124 -11.9740 -11.9740 -11.6203 -11.6203 -11.6203
   -11.6183 -11.6183  -1.9847   8.2338   8.8194   8.8194

     highest occupied level (ev):     8.8194

!    total energy              =    -324.48886935 Ry
     estimated scf accuracy    <       0.00000003 Ry

     The total energy is the sum of the following terms:
     one-electron contribution =    -152.51867329 Ry
     hartree contribution      =      96.28314288 Ry
     xc contribution           =     -95.59390857 Ry
     ewald contribution        =    -172.65943036 Ry

     convergence has been achieved in   7 iterations

     Writing all to output data dir ./alpha-sn-scf/alphatin.save/ :
     XML data file, charge density, pseudopotentials, collected wavefunctions

     init_run     :      0.41s CPU      0.62s WALL (       1 calls)
     electrons    :      0.92s CPU      1.22s WALL (       1 calls)

     Called by init_run:
     wfcinit      :      0.03s CPU      0.10s WALL (       1 calls)
     potinit      :      0.03s CPU      0.04s WALL (       1 calls)
     hinit0       :      0.17s CPU      0.24s WALL (       1 calls)

     Called by electrons:
     c_bands      :      0.29s CPU      0.42s WALL (       8 calls)
     sum_band     :      0.29s CPU      0.31s WALL (       8 calls)
     v_of_rho     :      0.12s CPU      0.13s WALL (       8 calls)
     newd         :      0.15s CPU      0.18s WALL (       8 calls)
     mix_rho      :      0.03s CPU      0.03s WALL (       8 calls)

     Called by c_bands:
     init_us_2    :      0.00s CPU      0.00s WALL (      17 calls)
     cegterg      :      0.28s CPU      0.41s WALL (       8 calls)

     Called by *egterg:
     cdiaghg      :      0.01s CPU      0.11s WALL (      37 calls)
     h_psi        :      0.27s CPU      0.36s WALL (      39 calls)
     s_psi        :      0.00s CPU      0.00s WALL (      39 calls)
     g_psi        :      0.00s CPU      0.00s WALL (      30 calls)

     Called by h_psi:
     h_psi:calbec :      0.01s CPU      0.05s WALL (      39 calls)
     vloc_psi     :      0.26s CPU      0.30s WALL (      39 calls)
     vloc_psi:tg_ :      0.00s CPU      0.00s WALL (      39 calls)
     add_vuspsi   :      0.00s CPU      0.00s WALL (      39 calls)

     General routines
     calbec       :      0.01s CPU      0.05s WALL (      47 calls)
     fft          :      0.21s CPU      0.28s WALL (      89 calls)
     ffts         :      0.01s CPU      0.01s WALL (       8 calls)
     fftw         :      0.29s CPU      0.34s WALL (     742 calls)

     Parallel routines
     fft_scatt_xy :      0.02s CPU      0.02s WALL (     839 calls)
     fft_scatt_yz :      0.29s CPU      0.32s WALL (     839 calls)
     fft_scatt_tg :      0.02s CPU      0.03s WALL (     742 calls)

     PWSCF        :      7.61s CPU     12.71s WALL


   This run was terminated on:  16: 1:22   4Feb2026            

=------------------------------------------------------------------------------=
   JOB DONE.
=------------------------------------------------------------------------------=
