
     Program PWSCF v.7.3.1 starts on  4Feb2026 at 16: 2: 7 

     This program is part of the open-source Quantum ESPRESSO suite
     for quantum simulation of materials; please cite
         "P. Giannozzi et al., J. Phys.:Condens. Matter 21 395502 (2009);
         "P. Giannozzi et al., J. Phys.:Condens. Matter 29 465901 (2017);
         "P. Giannozzi et al., J. Chem. Phys. 152 154105 (2020);
          URL http://www.quantum-espresso.org", 
     in publications or presentations arising from this work. More details at
     http://www.quantum-espresso.org/quote

     Parallel version (MPI), running on   128 processors

     MPI processes distributed on     1 nodes
     241645 MiB available memory on the printing compute node when the environment starts

     Waiting for input...
     Reading input from standard input
     Message from routine read_cards :
     DEPRECATED: no units specified in ATOMIC_POSITIONS card
     Message from routine read_cards :
     ATOMIC_POSITIONS: units set to alat

     Current dimensions of program PWSCF are:
     Max number of different atomic species (ntypx) = 10
     Max number of k-points (npk) =  40000
     Max angular momentum in pseudopotentials (lmaxx) =  4

     K-points division:     npool     =       4
     R & G space division:  proc/nbgrp/npool/nimage =      32
     Subspace diagonalization in iterative solution of the eigenvalue problem:
     a serial algorithm will be used


     Parallelization info
     --------------------
     sticks:   dense  smooth     PW     G-vecs:    dense   smooth      PW
     Min         244     244     64                14289    14289    1960
     Max         245     245     65                14294    14294    1967
     Sum        7813    7813   2077               457287   457287   62847

     Using Slab Decomposition



     bravais-lattice index     =            2
     lattice parameter (alat)  =      12.2300  a.u.
     unit-cell volume          =     457.3191 (a.u.)^3
     number of atoms/cell      =            2
     number of atomic types    =            1
     number of electrons       =        28.00
     number of Kohn-Sham states=           14
     kinetic-energy cutoff     =     380.0000  Ry
     charge density cutoff     =    1520.0000  Ry
     scf convergence threshold =      1.0E-07
     mixing beta               =       0.7000
     number of iterations used =            8  plain     mixing
     Exchange-correlation=  SLA  PW   GGX  GGC
                           (   1   4   2   2   0   0   0)

     celldm(1)=  12.230000  celldm(2)=   0.000000  celldm(3)=   0.000000
     celldm(4)=   0.000000  celldm(5)=   0.000000  celldm(6)=   0.000000

     crystal axes: (cart. coord. in units of alat)
               a(1) = (  -0.500000   0.000000   0.500000 )  
               a(2) = (   0.000000   0.500000   0.500000 )  
               a(3) = (  -0.500000   0.500000   0.000000 )  

     reciprocal axes: (cart. coord. in units 2 pi/alat)
               b(1) = ( -1.000000 -1.000000  1.000000 )  
               b(2) = (  1.000000  1.000000  1.000000 )  
               b(3) = ( -1.000000  1.000000 -1.000000 )  


     PseudoPot. # 1 for Sn read from file:
     ./Sn.pw91-n-van.UPF
     MD5 check sum: a38d2a872edd1a4efd76c0a1a38f7031
     Pseudo is Ultrasoft + core correction, Zval = 14.0
     Generated by new atomic code, or converted to UPF format
     Using radial grid of  891 points,  6 beta functions with: 
                l(1) =   0
                l(2) =   0
                l(3) =   1
                l(4) =   1
                l(5) =   2
                l(6) =   2
     Q(r) pseudized with  8 coefficients,  rinner =    1.100   1.100   1.100
                                                       1.100   1.100

     atomic species   valence    mass     pseudopotential
     Sn               14.00   118.70000     Sn( 1.00)

     48 Sym. Ops., with inversion, found (24 have fractional translation)



   Cartesian axes

     site n.     atom                  positions (alat units)
         1        Sn     tau(   1) = (   0.0000000   0.0000000   0.0000000  )
         2        Sn     tau(   2) = (   0.2500000   0.2500000   0.2500000  )

     number of k points=    16
                       cart. coord. in units 2pi/alat
        k(    1) = (   0.0000000   0.0000000   0.0000000), wk =   0.0092593
        k(    2) = (  -0.1666667   0.1666667  -0.1666667), wk =   0.0740741
        k(    3) = (  -0.3333333   0.3333333  -0.3333333), wk =   0.0740741
        k(    4) = (   0.5000000  -0.5000000   0.5000000), wk =   0.0370370
        k(    5) = (   0.0000000   0.3333333   0.0000000), wk =   0.0555556
        k(    6) = (  -0.1666667   0.5000000  -0.1666667), wk =   0.2222222
        k(    7) = (   0.6666667  -0.3333333   0.6666667), wk =   0.2222222
        k(    8) = (   0.5000000  -0.1666667   0.5000000), wk =   0.2222222
        k(    9) = (   0.3333333   0.0000000   0.3333333), wk =   0.1111111
        k(   10) = (   0.0000000   0.6666667   0.0000000), wk =   0.0555556
        k(   11) = (   0.8333333  -0.1666667   0.8333333), wk =   0.2222222
        k(   12) = (   0.6666667  -0.0000000   0.6666667), wk =   0.1111111
        k(   13) = (   0.0000000  -1.0000000   0.0000000), wk =   0.0277778
        k(   14) = (   0.6666667  -0.3333333   1.0000000), wk =   0.2222222
        k(   15) = (   0.5000000  -0.1666667   0.8333333), wk =   0.2222222
        k(   16) = (  -0.3333333  -1.0000000   0.0000000), wk =   0.1111111

     Dense  grid:   457287 G-vectors     FFT dimensions: ( 108, 108, 108)

     Estimated max dynamical RAM per process >      25.57 MB

     Estimated total dynamical RAM >       2.87 GB

     Initial potential from superposition of free atoms

     starting charge      27.9964, renormalised to      28.0000

     negative rho (up, down):  2.695E-05 0.000E+00
     Starting wfcs are   18 randomized atomic wfcs

     total cpu time spent up to now is        1.6 secs

     per-process dynamical memory:    26.7 Mb

     Self-consistent Calculation

     iteration #  1     ecut=   380.00 Ry     beta= 0.70
     Davidson diagonalization with overlap
     ethr =  1.00E-02,  avg # of iterations =  2.9

     Threshold (ethr) on eigenvalues was too large:
     Diagonalizing with lowered threshold

     Davidson diagonalization with overlap
     ethr =  7.08E-05,  avg # of iterations =  3.9

     negative rho (up, down):  1.394E-05 0.000E+00

     total cpu time spent up to now is        2.5 secs

     total energy              =    -325.51030421 Ry
     estimated scf accuracy    <       0.02386069 Ry

     iteration #  2     ecut=   380.00 Ry     beta= 0.70
     Davidson diagonalization with overlap
     ethr =  8.52E-05,  avg # of iterations =  4.6

     negative rho (up, down):  7.930E-06 0.000E+00

     total cpu time spent up to now is        3.1 secs

     total energy              =    -325.60139914 Ry
     estimated scf accuracy    <       0.04555234 Ry

     iteration #  3     ecut=   380.00 Ry     beta= 0.70
     Davidson diagonalization with overlap
     ethr =  8.52E-05,  avg # of iterations =  1.9

     total cpu time spent up to now is        3.6 secs

     total energy              =    -325.63360776 Ry
     estimated scf accuracy    <       0.01815588 Ry

     iteration #  4     ecut=   380.00 Ry     beta= 0.70
     Davidson diagonalization with overlap
     ethr =  6.48E-05,  avg # of iterations =  2.1

     total cpu time spent up to now is        4.0 secs

     total energy              =    -325.63968459 Ry
     estimated scf accuracy    <       0.00005199 Ry

     iteration #  5     ecut=   380.00 Ry     beta= 0.70
     Davidson diagonalization with overlap
     ethr =  1.86E-07,  avg # of iterations =  5.2

     total cpu time spent up to now is        4.6 secs

     total energy              =    -325.64555583 Ry
     estimated scf accuracy    <       0.00008597 Ry

     iteration #  6     ecut=   380.00 Ry     beta= 0.70
     Davidson diagonalization with overlap
     ethr =  1.86E-07,  avg # of iterations =  2.6

     total cpu time spent up to now is        5.2 secs

     total energy              =    -325.64874716 Ry
     estimated scf accuracy    <       0.00030508 Ry

     iteration #  7     ecut=   380.00 Ry     beta= 0.70
     Davidson diagonalization with overlap
     ethr =  1.86E-07,  avg # of iterations =  2.0

     total cpu time spent up to now is        5.6 secs

     total energy              =    -325.64878363 Ry
     estimated scf accuracy    <       0.00000116 Ry

     iteration #  8     ecut=   380.00 Ry     beta= 0.70
     Davidson diagonalization with overlap
     ethr =  4.15E-09,  avg # of iterations =  3.8

     total cpu time spent up to now is        6.2 secs

     End of self-consistent calculation

          k = 0.0000 0.0000 0.0000 ( 57001 PWs)   bands (ev):

   -13.7610 -13.7610 -13.7610 -13.7009 -13.7009 -13.3844 -13.3844 -13.3844
   -13.3754 -13.3754  -2.7291   7.3031   8.0336   8.0336

          k =-0.1667 0.1667-0.1667 ( 57218 PWs)   bands (ev):

   -13.7776 -13.7776 -13.7545 -13.6767 -13.6767 -13.4154 -13.4154 -13.3927
   -13.3489 -13.3489  -2.4603   5.1234   7.5849   7.5849

          k =-0.3333 0.3333-0.3333 ( 57203 PWs)   bands (ev):

   -13.7936 -13.7936 -13.7409 -13.6480 -13.6480 -13.4394 -13.4394 -13.4101
   -13.3317 -13.3317  -1.7217   2.7944   7.0255   7.0255

          k = 0.5000-0.5000 0.5000 ( 57200 PWs)   bands (ev):

   -13.7980 -13.7980 -13.7338 -13.6390 -13.6390 -13.4459 -13.4459 -13.4191
   -13.3269 -13.3269  -1.0915   1.6073   6.8167   6.8167

          k = 0.0000 0.3333 0.0000 ( 57190 PWs)   bands (ev):

   -13.7757 -13.7757 -13.7703 -13.6786 -13.6489 -13.4633 -13.3967 -13.3632
   -13.3632 -13.3476  -2.3675   5.0296   6.9567   6.9567

          k =-0.1667 0.5000-0.1667 ( 57187 PWs)   bands (ev):

   -13.8041 -13.7915 -13.7425 -13.6488 -13.6115 -13.5016 -13.4288 -13.3885
   -13.3384 -13.3206  -1.7650   3.2549   6.1198   6.4371

          k = 0.6667-0.3333 0.6667 ( 57249 PWs)   bands (ev):

   -13.8212 -13.8032 -13.7078 -13.6206 -13.6088 -13.4965 -13.4610 -13.4296
   -13.3204 -13.3017  -0.9415   1.6992   5.4404   6.3669

          k = 0.5000-0.1667 0.5000 ( 57189 PWs)   bands (ev):

   -13.8168 -13.8067 -13.7036 -13.6371 -13.6103 -13.4782 -13.4512 -13.4450
   -13.3145 -13.3088  -1.1985   2.1173   5.2953   6.7649

          k = 0.3333 0.0000 0.3333 ( 57179 PWs)   bands (ev):

   -13.7971 -13.7928 -13.7362 -13.6626 -13.6382 -13.4568 -13.4344 -13.3958
   -13.3409 -13.3242  -2.0249   3.8275   5.9546   7.4226

          k = 0.0000 0.6667 0.0000 ( 57190 PWs)   bands (ev):

   -13.8017 -13.8017 -13.7468 -13.6181 -13.5726 -13.5523 -13.4554 -13.3751
   -13.3242 -13.3242  -1.3038   2.5648   5.8552   5.8552

          k = 0.8333-0.1667 0.8333 ( 57218 PWs)   bands (ev):

   -13.8255 -13.8107 -13.6976 -13.6017 -13.5800 -13.5224 -13.4954 -13.4291
   -13.3101 -13.2953  -0.4538   1.3550   4.9915   5.7185

          k = 0.6667-0.0000 0.6667 ( 57225 PWs)   bands (ev):

   -13.8371 -13.8135 -13.6757 -13.5738 -13.5657 -13.5439 -13.5162 -13.4522
   -13.3060 -13.2837  -0.3657   1.2557   4.4521   6.0864

          k = 0.0000-1.0000 0.0000 ( 57162 PWs)   bands (ev):

   -13.8133 -13.8133 -13.6763 -13.6763 -13.5363 -13.5363 -13.4514 -13.4514
   -13.3059 -13.3059   0.3884   0.3884   5.4606   5.4606

          k = 0.6667-0.3333 1.0000 ( 57192 PWs)   bands (ev):

   -13.8196 -13.8139 -13.7004 -13.6186 -13.5706 -13.5424 -13.4614 -13.4317
   -13.3076 -13.3044  -1.0401   2.1193   5.0328   6.0098

          k = 0.5000-0.1667 0.8333 ( 57226 PWs)   bands (ev):

   -13.8337 -13.8188 -13.6672 -13.5915 -13.5609 -13.5474 -13.4992 -13.4604
   -13.3017 -13.2871  -0.3628   1.2394   4.6751   5.6691

          k =-0.3333-1.0000 0.0000 ( 57216 PWs)   bands (ev):

   -13.8274 -13.8274 -13.6353 -13.6353 -13.5406 -13.5406 -13.4877 -13.4877
   -13.2922 -13.2922   0.4331   0.4331   5.0005   5.0005

     highest occupied level (ev):     8.0336

!    total energy              =    -325.64878416 Ry
     estimated scf accuracy    <       0.00000006 Ry

     The total energy is the sum of the following terms:
     one-electron contribution =    -150.94177105 Ry
     hartree contribution      =      93.17913953 Ry
     xc contribution           =     -95.22672228 Ry
     ewald contribution        =    -172.65943036 Ry

     convergence has been achieved in   8 iterations

     Writing all to output data dir ./alpha-sn-scf/alphatin.save/ :
     XML data file, charge density, pseudopotentials, collected wavefunctions

     init_run     :      1.20s CPU      1.28s WALL (       1 calls)
     electrons    :      4.48s CPU      4.71s WALL (       1 calls)

     Called by init_run:
     wfcinit      :      0.15s CPU      0.17s WALL (       1 calls)
     potinit      :      0.07s CPU      0.08s WALL (       1 calls)
     hinit0       :      0.48s CPU      0.51s WALL (       1 calls)

     Called by electrons:
     c_bands      :      3.00s CPU      3.05s WALL (       9 calls)
     sum_band     :      0.80s CPU      0.83s WALL (       9 calls)
     v_of_rho     :      0.44s CPU      0.47s WALL (       9 calls)
     newd         :      0.21s CPU      0.23s WALL (       9 calls)
     mix_rho      :      0.06s CPU      0.07s WALL (       9 calls)

     Called by c_bands:
     init_us_2    :      0.07s CPU      0.07s WALL (      76 calls)
     cegterg      :      2.78s CPU      2.81s WALL (      36 calls)

     Called by *egterg:
     cdiaghg      :      0.06s CPU      0.06s WALL (     166 calls)
     h_psi        :      2.52s CPU      2.56s WALL (     174 calls)
     s_psi        :      0.05s CPU      0.05s WALL (     174 calls)
     g_psi        :      0.01s CPU      0.01s WALL (     134 calls)

     Called by h_psi:
     h_psi:calbec :      0.11s CPU      0.12s WALL (     174 calls)
     vloc_psi     :      2.34s CPU      2.37s WALL (     174 calls)
     add_vuspsi   :      0.06s CPU      0.06s WALL (     174 calls)

     General routines
     calbec       :      0.13s CPU      0.13s WALL (     210 calls)
     fft          :      0.69s CPU      0.73s WALL (     100 calls)
     ffts         :      0.02s CPU      0.03s WALL (       9 calls)
     fftw         :      2.40s CPU      2.43s WALL (    3424 calls)

     Parallel routines

     PWSCF        :      6.00s CPU      6.91s WALL


   This run was terminated on:  16: 2:14   4Feb2026            

=------------------------------------------------------------------------------=
   JOB DONE.
=------------------------------------------------------------------------------=
