
     Program PWSCF v.7.3.1 starts on  4Feb2026 at 16: 3:58 

     This program is part of the open-source Quantum ESPRESSO suite
     for quantum simulation of materials; please cite
         "P. Giannozzi et al., J. Phys.:Condens. Matter 21 395502 (2009);
         "P. Giannozzi et al., J. Phys.:Condens. Matter 29 465901 (2017);
         "P. Giannozzi et al., J. Chem. Phys. 152 154105 (2020);
          URL http://www.quantum-espresso.org", 
     in publications or presentations arising from this work. More details at
     http://www.quantum-espresso.org/quote

     Parallel version (MPI), running on   128 processors

     MPI processes distributed on     1 nodes
     240724 MiB available memory on the printing compute node when the environment starts

     Waiting for input...
     Reading input from standard input
     Message from routine read_cards :
     DEPRECATED: no units specified in ATOMIC_POSITIONS card
     Message from routine read_cards :
     ATOMIC_POSITIONS: units set to alat

     Current dimensions of program PWSCF are:
     Max number of different atomic species (ntypx) = 10
     Max number of k-points (npk) =  40000
     Max angular momentum in pseudopotentials (lmaxx) =  4

     K-points division:     npool     =       4
     R & G space division:  proc/nbgrp/npool/nimage =      32
     Subspace diagonalization in iterative solution of the eigenvalue problem:
     a serial algorithm will be used


     Parallelization info
     --------------------
     sticks:   dense  smooth     PW     G-vecs:    dense   smooth      PW
     Min         244     244     65                14289    14289    1980
     Max         245     245     66                14294    14294    1981
     Sum        7813    7813   2095               457287   457287   63375

     Using Slab Decomposition



     bravais-lattice index     =            2
     lattice parameter (alat)  =      12.2300  a.u.
     unit-cell volume          =     457.3191 (a.u.)^3
     number of atoms/cell      =            2
     number of atomic types    =            1
     number of electrons       =        28.00
     number of Kohn-Sham states=           14
     kinetic-energy cutoff     =     380.0000  Ry
     charge density cutoff     =    1520.0000  Ry
     scf convergence threshold =      1.0E-07
     mixing beta               =       0.7000
     number of iterations used =            8  plain     mixing
     Exchange-correlation=  SLA  PW   GGX  GGC
                           (   1   4   2   2   0   0   0)

     celldm(1)=  12.230000  celldm(2)=   0.000000  celldm(3)=   0.000000
     celldm(4)=   0.000000  celldm(5)=   0.000000  celldm(6)=   0.000000

     crystal axes: (cart. coord. in units of alat)
               a(1) = (  -0.500000   0.000000   0.500000 )  
               a(2) = (   0.000000   0.500000   0.500000 )  
               a(3) = (  -0.500000   0.500000   0.000000 )  

     reciprocal axes: (cart. coord. in units 2 pi/alat)
               b(1) = ( -1.000000 -1.000000  1.000000 )  
               b(2) = (  1.000000  1.000000  1.000000 )  
               b(3) = ( -1.000000  1.000000 -1.000000 )  


     PseudoPot. # 1 for Sn read from file:
     ./Sn.pw91-n-van.UPF
     MD5 check sum: a38d2a872edd1a4efd76c0a1a38f7031
     Pseudo is Ultrasoft + core correction, Zval = 14.0
     Generated by new atomic code, or converted to UPF format
     Using radial grid of  891 points,  6 beta functions with: 
                l(1) =   0
                l(2) =   0
                l(3) =   1
                l(4) =   1
                l(5) =   2
                l(6) =   2
     Q(r) pseudized with  8 coefficients,  rinner =    1.100   1.100   1.100
                                                       1.100   1.100

     atomic species   valence    mass     pseudopotential
     Sn               14.00   118.70000     Sn( 1.00)

     48 Sym. Ops., with inversion, found (24 have fractional translation)



   Cartesian axes

     site n.     atom                  positions (alat units)
         1        Sn     tau(   1) = (   0.0000000   0.0000000   0.0000000  )
         2        Sn     tau(   2) = (   0.2500000   0.2500000   0.2500000  )

     number of k points=    84
                       cart. coord. in units 2pi/alat
        k(    1) = (   0.0000000   0.0000000   0.0000000), wk =   0.0009103
        k(    2) = (  -0.0769231   0.0769231  -0.0769231), wk =   0.0072827
        k(    3) = (  -0.1538462   0.1538462  -0.1538462), wk =   0.0072827
        k(    4) = (  -0.2307692   0.2307692  -0.2307692), wk =   0.0072827
        k(    5) = (  -0.3076923   0.3076923  -0.3076923), wk =   0.0072827
        k(    6) = (  -0.3846154   0.3846154  -0.3846154), wk =   0.0072827
        k(    7) = (  -0.4615385   0.4615385  -0.4615385), wk =   0.0072827
        k(    8) = (   0.0000000   0.1538462   0.0000000), wk =   0.0054620
        k(    9) = (  -0.0769231   0.2307692  -0.0769231), wk =   0.0218480
        k(   10) = (  -0.1538462   0.3076923  -0.1538462), wk =   0.0218480
        k(   11) = (  -0.2307692   0.3846154  -0.2307692), wk =   0.0218480
        k(   12) = (  -0.3076923   0.4615385  -0.3076923), wk =   0.0218480
        k(   13) = (  -0.3846154   0.5384615  -0.3846154), wk =   0.0218480
        k(   14) = (   0.5384615  -0.3846154   0.5384615), wk =   0.0218480
        k(   15) = (   0.4615385  -0.3076923   0.4615385), wk =   0.0218480
        k(   16) = (   0.3846154  -0.2307692   0.3846154), wk =   0.0218480
        k(   17) = (   0.3076923  -0.1538462   0.3076923), wk =   0.0218480
        k(   18) = (   0.2307692  -0.0769231   0.2307692), wk =   0.0218480
        k(   19) = (   0.1538462   0.0000000   0.1538462), wk =   0.0109240
        k(   20) = (   0.0000000   0.3076923   0.0000000), wk =   0.0054620
        k(   21) = (  -0.0769231   0.3846154  -0.0769231), wk =   0.0218480
        k(   22) = (  -0.1538462   0.4615385  -0.1538462), wk =   0.0218480
        k(   23) = (  -0.2307692   0.5384615  -0.2307692), wk =   0.0218480
        k(   24) = (  -0.3076923   0.6153846  -0.3076923), wk =   0.0218480
        k(   25) = (   0.6153846  -0.3076923   0.6153846), wk =   0.0218480
        k(   26) = (   0.5384615  -0.2307692   0.5384615), wk =   0.0218480
        k(   27) = (   0.4615385  -0.1538462   0.4615385), wk =   0.0218480
        k(   28) = (   0.3846154  -0.0769231   0.3846154), wk =   0.0218480
        k(   29) = (   0.3076923   0.0000000   0.3076923), wk =   0.0109240
        k(   30) = (   0.0000000   0.4615385   0.0000000), wk =   0.0054620
        k(   31) = (  -0.0769231   0.5384615  -0.0769231), wk =   0.0218480
        k(   32) = (  -0.1538462   0.6153846  -0.1538462), wk =   0.0218480
        k(   33) = (  -0.2307692   0.6923077  -0.2307692), wk =   0.0218480
        k(   34) = (   0.6923077  -0.2307692   0.6923077), wk =   0.0218480
        k(   35) = (   0.6153846  -0.1538462   0.6153846), wk =   0.0218480
        k(   36) = (   0.5384615  -0.0769231   0.5384615), wk =   0.0218480
        k(   37) = (   0.4615385   0.0000000   0.4615385), wk =   0.0109240
        k(   38) = (   0.0000000   0.6153846   0.0000000), wk =   0.0054620
        k(   39) = (  -0.0769231   0.6923077  -0.0769231), wk =   0.0218480
        k(   40) = (  -0.1538462   0.7692308  -0.1538462), wk =   0.0218480
        k(   41) = (   0.7692308  -0.1538462   0.7692308), wk =   0.0218480
        k(   42) = (   0.6923077  -0.0769231   0.6923077), wk =   0.0218480
        k(   43) = (   0.6153846   0.0000000   0.6153846), wk =   0.0109240
        k(   44) = (   0.0000000   0.7692308   0.0000000), wk =   0.0054620
        k(   45) = (  -0.0769231   0.8461538  -0.0769231), wk =   0.0218480
        k(   46) = (   0.8461538  -0.0769231   0.8461538), wk =   0.0218480
        k(   47) = (   0.7692308   0.0000000   0.7692308), wk =   0.0109240
        k(   48) = (   0.0000000   0.9230769   0.0000000), wk =   0.0054620
        k(   49) = (   0.9230769   0.0000000   0.9230769), wk =   0.0109240
        k(   50) = (  -0.1538462   0.3076923   0.0000000), wk =   0.0218480
        k(   51) = (  -0.2307692   0.3846154  -0.0769231), wk =   0.0436959
        k(   52) = (  -0.3076923   0.4615385  -0.1538462), wk =   0.0436959
        k(   53) = (  -0.3846154   0.5384615  -0.2307692), wk =   0.0436959
        k(   54) = (   0.5384615  -0.3846154   0.6923077), wk =   0.0436959
        k(   55) = (  -0.1538462   0.4615385   0.0000000), wk =   0.0218480
        k(   56) = (  -0.2307692   0.5384615  -0.0769231), wk =   0.0436959
        k(   57) = (  -0.3076923   0.6153846  -0.1538462), wk =   0.0436959
        k(   58) = (   0.6153846  -0.3076923   0.7692308), wk =   0.0436959
        k(   59) = (   0.5384615  -0.2307692   0.6923077), wk =   0.0436959
        k(   60) = (   0.4615385  -0.1538462   0.6153846), wk =   0.0436959
        k(   61) = (   0.3846154  -0.0769231   0.5384615), wk =   0.0436959
        k(   62) = (   0.3076923   0.0000000   0.4615385), wk =   0.0218480
        k(   63) = (  -0.1538462   0.6153846   0.0000000), wk =   0.0218480
        k(   64) = (  -0.2307692   0.6923077  -0.0769231), wk =   0.0436959
        k(   65) = (   0.6923077  -0.2307692   0.8461538), wk =   0.0436959
        k(   66) = (   0.6153846  -0.1538462   0.7692308), wk =   0.0436959
        k(   67) = (   0.5384615  -0.0769231   0.6923077), wk =   0.0436959
        k(   68) = (   0.4615385   0.0000000   0.6153846), wk =   0.0218480
        k(   69) = (  -0.1538462   0.7692308   0.0000000), wk =   0.0218480
        k(   70) = (   0.7692308  -0.1538462   0.9230769), wk =   0.0436959
        k(   71) = (   0.6923077  -0.0769231   0.8461538), wk =   0.0436959
        k(   72) = (   0.6153846   0.0000000   0.7692308), wk =   0.0218480
        k(   73) = (   0.8461538  -0.0769231   1.0000000), wk =   0.0218480
        k(   74) = (   0.7692308   0.0000000   0.9230769), wk =   0.0218480
        k(   75) = (  -0.3076923   0.6153846   0.0000000), wk =   0.0218480
        k(   76) = (   0.6153846  -0.3076923   0.9230769), wk =   0.0436959
        k(   77) = (   0.5384615  -0.2307692   0.8461538), wk =   0.0436959
        k(   78) = (   0.6923077  -0.2307692   1.0000000), wk =   0.0218480
        k(   79) = (   0.6153846  -0.1538462   0.9230769), wk =   0.0436959
        k(   80) = (   0.5384615  -0.0769231   0.8461538), wk =   0.0436959
        k(   81) = (   0.4615385   0.0000000   0.7692308), wk =   0.0218480
        k(   82) = (   0.6923077  -0.0769231   1.0000000), wk =   0.0218480
        k(   83) = (   0.6153846   0.0000000   0.9230769), wk =   0.0218480
        k(   84) = (   0.5384615  -0.0769231   1.0000000), wk =   0.0218480

     Dense  grid:   457287 G-vectors     FFT dimensions: ( 108, 108, 108)

     Estimated max dynamical RAM per process >      32.06 MB

     Estimated total dynamical RAM >       3.68 GB

     Initial potential from superposition of free atoms

     starting charge      27.9964, renormalised to      28.0000

     negative rho (up, down):  2.695E-05 0.000E+00
     Starting wfcs are   18 randomized atomic wfcs

     total cpu time spent up to now is        2.2 secs

     per-process dynamical memory:    28.9 Mb

     Self-consistent Calculation

     iteration #  1     ecut=   380.00 Ry     beta= 0.70
     Davidson diagonalization with overlap
     ethr =  1.00E-02,  avg # of iterations =  3.1

     Threshold (ethr) on eigenvalues was too large:
     Diagonalizing with lowered threshold

     Davidson diagonalization with overlap
     ethr =  7.55E-05,  avg # of iterations =  3.9

     negative rho (up, down):  1.443E-05 0.000E+00

     total cpu time spent up to now is        6.3 secs

     total energy              =    -325.51664316 Ry
     estimated scf accuracy    <       0.02490554 Ry

     iteration #  2     ecut=   380.00 Ry     beta= 0.70
     Davidson diagonalization with overlap
     ethr =  8.89E-05,  avg # of iterations =  5.0

     negative rho (up, down):  8.562E-06 0.000E+00

     total cpu time spent up to now is        9.0 secs

     total energy              =    -325.61155713 Ry
     estimated scf accuracy    <       0.04829191 Ry

     iteration #  3     ecut=   380.00 Ry     beta= 0.70
     Davidson diagonalization with overlap
     ethr =  8.89E-05,  avg # of iterations =  2.0

     total cpu time spent up to now is       10.7 secs

     total energy              =    -325.64373139 Ry
     estimated scf accuracy    <       0.01926141 Ry

     iteration #  4     ecut=   380.00 Ry     beta= 0.70
     Davidson diagonalization with overlap
     ethr =  6.88E-05,  avg # of iterations =  2.3

     total cpu time spent up to now is       12.5 secs

     total energy              =    -325.65142089 Ry
     estimated scf accuracy    <       0.00006176 Ry

     iteration #  5     ecut=   380.00 Ry     beta= 0.70
     Davidson diagonalization with overlap
     ethr =  2.21E-07,  avg # of iterations =  4.2

     total cpu time spent up to now is       14.9 secs

     total energy              =    -325.65149805 Ry
     estimated scf accuracy    <       0.00013028 Ry

     iteration #  6     ecut=   380.00 Ry     beta= 0.70
     Davidson diagonalization with overlap
     ethr =  2.21E-07,  avg # of iterations =  2.0

     total cpu time spent up to now is       16.8 secs

     total energy              =    -325.65151510 Ry
     estimated scf accuracy    <       0.00000021 Ry

     iteration #  7     ecut=   380.00 Ry     beta= 0.70
     Davidson diagonalization with overlap
     ethr =  7.63E-10,  avg # of iterations =  4.2

     total cpu time spent up to now is       19.2 secs

     total energy              =    -325.65151676 Ry
     estimated scf accuracy    <       0.00000016 Ry

     iteration #  8     ecut=   380.00 Ry     beta= 0.70
     Davidson diagonalization with overlap
     ethr =  5.89E-10,  avg # of iterations =  2.1

     total cpu time spent up to now is       21.1 secs

     End of self-consistent calculation

          k = 0.0000 0.0000 0.0000 ( 57001 PWs)   bands (ev):

   -13.7712 -13.7712 -13.7712 -13.7107 -13.7107 -13.3944 -13.3944 -13.3944
   -13.3852 -13.3852  -2.7373   7.2938   8.0252   8.0252

          k =-0.0769 0.0769-0.0769 ( 57160 PWs)   bands (ev):

   -13.7762 -13.7762 -13.7698 -13.7039 -13.7039 -13.4070 -13.4070 -13.3963
   -13.3737 -13.3737  -2.6795   6.4822   7.9013   7.9013

          k =-0.1538 0.1538-0.1538 ( 57203 PWs)   bands (ev):

   -13.7861 -13.7861 -13.7656 -13.6892 -13.6892 -13.4228 -13.4228 -13.4016
   -13.3608 -13.3608  -2.5078   5.3115   7.6270   7.6270

          k =-0.2308 0.2308-0.2308 ( 57197 PWs)   bands (ev):

   -13.7954 -13.7954 -13.7596 -13.6737 -13.6737 -13.4366 -13.4366 -13.4092
   -13.3506 -13.3506  -2.2299   4.1564   7.3333   7.3333

          k =-0.3077 0.3077-0.3077 ( 57209 PWs)   bands (ev):

   -13.8021 -13.8021 -13.7531 -13.6611 -13.6611 -13.4468 -13.4468 -13.4175
   -13.3434 -13.3434  -1.8644   3.1026   7.0851   7.0851

          k =-0.3846 0.3846-0.3846 ( 57203 PWs)   bands (ev):

   -13.8061 -13.8061 -13.7476 -13.6530 -13.6530 -13.4529 -13.4529 -13.4246
   -13.3391 -13.3391  -1.4606   2.2282   6.9102   6.9102

          k =-0.4615 0.4615-0.4615 ( 57245 PWs)   bands (ev):

   -13.8079 -13.8079 -13.7443 -13.6492 -13.6492 -13.4554 -13.4554 -13.4286
   -13.3371 -13.3371  -1.1488   1.6781   6.8205   6.8205

          k = 0.0000 0.1538 0.0000 ( 57158 PWs)   bands (ev):

   -13.7757 -13.7747 -13.7747 -13.7058 -13.6970 -13.4234 -13.3899 -13.3894
   -13.3894 -13.3673  -2.6601   6.3926   7.6822   7.6822

          k =-0.0769 0.2308-0.0769 ( 57178 PWs)   bands (ev):

   -13.7864 -13.7814 -13.7707 -13.6961 -13.6816 -13.4419 -13.4061 -13.3897
   -13.3740 -13.3574  -2.5259   5.5266   7.3748   7.4178

          k =-0.1538 0.3077-0.1538 ( 57188 PWs)   bands (ev):

   -13.7978 -13.7904 -13.7629 -13.6818 -13.6647 -13.4578 -13.4216 -13.3977
   -13.3610 -13.3462  -2.2821   4.4509   7.0841   7.0991

          k =-0.2308 0.3846-0.2308 ( 57203 PWs)   bands (ev):

   -13.8071 -13.7983 -13.7532 -13.6678 -13.6509 -13.4686 -13.4351 -13.4094
   -13.3507 -13.3370  -1.9426   3.3996   6.7786   6.8591

          k =-0.3077 0.4615-0.3077 ( 57231 PWs)   bands (ev):

   -13.8133 -13.8042 -13.7435 -13.6562 -13.6431 -13.4724 -13.4463 -13.4219
   -13.3429 -13.3308  -1.5423   2.4762   6.5118   6.7212

          k =-0.3846 0.5385-0.3846 ( 57204 PWs)   bands (ev):

   -13.8162 -13.8081 -13.7362 -13.6477 -13.6417 -13.4690 -13.4554 -13.4326
   -13.3373 -13.3281  -1.1762   1.8041   6.3231   6.6787

          k = 0.5385-0.3846 0.5385 ( 57245 PWs)   bands (ev):

   -13.8160 -13.8104 -13.7334 -13.6454 -13.6423 -13.4623 -13.4604 -13.4386
   -13.3338 -13.3290  -1.0524   1.6034   6.2248   6.7324

          k = 0.4615-0.3077 0.4615 ( 57216 PWs)   bands (ev):

   -13.8130 -13.8107 -13.7361 -13.6520 -13.6412 -13.4659 -13.4523 -13.4357
   -13.3334 -13.3326  -1.2849   1.9907   6.2245   6.8771

          k = 0.3846-0.2308 0.3846 ( 57198 PWs)   bands (ev):

   -13.8086 -13.8072 -13.7434 -13.6609 -13.6460 -13.4642 -13.4471 -13.4227
   -13.3413 -13.3343  -1.6797   2.7658   6.3278   7.1018

          k = 0.3077-0.1538 0.3077 ( 57179 PWs)   bands (ev):

   -13.8035 -13.7987 -13.7532 -13.6722 -13.6573 -13.4560 -13.4397 -13.4072
   -13.3524 -13.3392  -2.0659   3.7391   6.5398   7.3846

          k = 0.2308-0.0769 0.2308 ( 57221 PWs)   bands (ev):

   -13.7953 -13.7882 -13.7627 -13.6856 -13.6735 -13.4422 -13.4287 -13.3928
   -13.3666 -13.3477  -2.3756   4.7987   6.8702   7.6810

          k = 0.1538 0.0000 0.1538 ( 57167 PWs)   bands (ev):

   -13.7851 -13.7784 -13.7692 -13.6982 -13.6908 -13.4252 -13.4153 -13.3843
   -13.3803 -13.3593  -2.5835   5.8056   7.3463   7.8977

          k = 0.0000 0.3077 0.0000 ( 57222 PWs)   bands (ev):

   -13.7840 -13.7840 -13.7803 -13.6916 -13.6651 -13.4655 -13.4035 -13.3760
   -13.3760 -13.3578  -2.4291   5.2167   7.0546   7.0546

          k =-0.0769 0.3846-0.0769 ( 57192 PWs)   bands (ev):

   -13.7969 -13.7911 -13.7715 -13.6795 -13.6462 -13.4866 -13.4169 -13.3791
   -13.3644 -13.3488  -2.2207   4.4575   6.7062   6.7602

          k =-0.1538 0.4615-0.1538 ( 57179 PWs)   bands (ev):

   -13.8101 -13.7989 -13.7571 -13.6649 -13.6299 -13.5020 -13.4327 -13.3946
   -13.3524 -13.3348  -1.9105   3.5461   6.3036   6.5384

          k =-0.2308 0.5385-0.2308 ( 57188 PWs)   bands (ev):

   -13.8208 -13.8056 -13.7407 -13.6507 -13.6205 -13.5088 -13.4480 -13.4137
   -13.3423 -13.3231  -1.5234   2.6596   5.9326   6.4110

          k =-0.3077 0.6154-0.3077 ( 57209 PWs)   bands (ev):

   -13.8277 -13.8107 -13.7255 -13.6383 -13.6203 -13.5050 -13.4623 -13.4319
   -13.3343 -13.3156  -1.1262   1.9313   5.6428   6.3868

          k = 0.6154-0.3077 0.6154 ( 57220 PWs)   bands (ev):

   -13.8303 -13.8144 -13.7155 -13.6284 -13.6282 -13.4914 -13.4747 -13.4458
   -13.3287 -13.3132  -0.8931   1.5646   5.4559   6.4661

          k = 0.5385-0.2308 0.5385 ( 57231 PWs)   bands (ev):

   -13.8283 -13.8161 -13.7136 -13.6406 -13.6232 -13.4831 -13.4709 -13.4532
   -13.3258 -13.3165  -1.0252   1.7688   5.3867   6.6423

          k = 0.4615-0.1538 0.4615 ( 57208 PWs)   bands (ev):

   -13.8217 -13.8153 -13.7212 -13.6534 -13.6256 -13.4840 -13.4544 -13.4461
   -13.3261 -13.3254  -1.3967   2.4085   5.4529   6.8995

          k = 0.3846-0.0769 0.3846 ( 57192 PWs)   bands (ev):

   -13.8115 -13.8113 -13.7357 -13.6650 -13.6370 -13.4760 -13.4499 -13.4210
   -13.3395 -13.3298  -1.7968   3.2368   5.6855   7.2070

          k = 0.3077 0.0000 0.3077 ( 57197 PWs)   bands (ev):

   -13.8046 -13.7987 -13.7515 -13.6760 -13.6544 -13.4610 -13.4409 -13.3995
   -13.3566 -13.3371  -2.1342   4.0820   6.1419   7.5041

          k = 0.0000 0.4615 0.0000 ( 57150 PWs)   bands (ev):

   -13.7962 -13.7962 -13.7770 -13.6689 -13.6241 -13.5138 -13.4253 -13.3613
   -13.3579 -13.3579  -2.0471   4.0511   6.4569   6.4569

          k =-0.0769 0.5385-0.0769 ( 57177 PWs)   bands (ev):

   -13.8080 -13.8029 -13.7643 -13.6543 -13.6037 -13.5359 -13.4403 -13.3795
   -13.3477 -13.3394  -1.7681   3.3818   6.0944   6.2250

          k =-0.1538 0.6154-0.1538 ( 57159 PWs)   bands (ev):

   -13.8220 -13.8092 -13.7435 -13.6385 -13.5899 -13.5490 -13.4572 -13.4036
   -13.3377 -13.3223  -1.4008   2.6348   5.6337   6.0890

          k =-0.2308 0.6923-0.2308 ( 57185 PWs)   bands (ev):

   -13.8333 -13.8145 -13.7215 -13.6232 -13.5876 -13.5490 -13.4744 -13.4282
   -13.3295 -13.3092  -0.9909   1.9425   5.2186   6.0598

          k = 0.6923-0.2308 0.6923 ( 57225 PWs)   bands (ev):

   -13.8400 -13.8184 -13.7042 -13.6098 -13.5963 -13.5371 -13.4905 -13.4473
   -13.3235 -13.3019  -0.6724   1.4813   4.9199   6.1389

          k = 0.6154-0.1538 0.6154 ( 57214 PWs)   bands (ev):

   -13.8409 -13.8205 -13.6962 -13.6143 -13.6015 -13.5147 -13.5022 -13.4571
   -13.3202 -13.3015  -0.6949   1.5142   4.7729   6.3200

          k = 0.5385-0.0769 0.5385 ( 57206 PWs)   bands (ev):

   -13.8359 -13.8204 -13.6995 -13.6363 -13.6035 -13.5038 -13.4847 -13.4583
   -13.3201 -13.3084  -1.0324   1.9990   4.8140   6.5863

          k = 0.4615 0.0000 0.4615 ( 57213 PWs)   bands (ev):

   -13.8253 -13.8174 -13.7145 -13.6538 -13.6172 -13.4935 -13.4598 -13.4469
   -13.3232 -13.3219  -1.4388   2.6364   5.0992   6.9038

          k = 0.0000 0.6154 0.0000 ( 57190 PWs)   bands (ev):

   -13.8083 -13.8083 -13.7636 -13.6391 -13.5781 -13.5653 -13.4543 -13.3772
   -13.3396 -13.3396  -1.5193   2.9215   5.9763   5.9763

          k =-0.0769 0.6923-0.0769 ( 57157 PWs)   bands (ev):

   -13.8183 -13.8136 -13.7465 -13.6222 -13.5868 -13.5576 -13.4714 -13.3973
   -13.3313 -13.3259  -1.1753   2.3280   5.6396   5.8218

          k =-0.1538 0.7692-0.1538 ( 57187 PWs)   bands (ev):

   -13.8314 -13.8181 -13.7210 -13.6049 -13.5973 -13.5460 -13.4900 -13.4253
   -13.3243 -13.3104  -0.7662   1.7271   5.1657   5.7747

          k = 0.7692-0.1538 0.7692 ( 57236 PWs)   bands (ev):

   -13.8418 -13.8215 -13.6984 -13.5918 -13.5890 -13.5494 -13.5083 -13.4492
   -13.3192 -13.2989  -0.3880   1.2492   4.7499   5.8386

          k = 0.6923-0.0769 0.6923 ( 57234 PWs)   bands (ev):

   -13.8468 -13.8232 -13.6877 -13.5789 -13.5771 -13.5615 -13.5216 -13.4603
   -13.3167 -13.2940  -0.3155   1.1690   4.5034   6.0084

          k = 0.6154 0.0000 0.6154 ( 57209 PWs)   bands (ev):

   -13.8448 -13.8230 -13.6883 -13.6071 -13.5847 -13.5261 -13.5193 -13.4615
   -13.3169 -13.2972  -0.6278   1.5342   4.5023   6.2684

          k = 0.0000 0.7692 0.0000 ( 57202 PWs)   bands (ev):

   -13.8177 -13.8177 -13.7398 -13.6165 -13.6040 -13.5303 -13.4886 -13.4043
   -13.3250 -13.3250  -0.8532   1.8465   5.6442   5.6442

          k =-0.0769 0.8462-0.0769 ( 57208 PWs)   bands (ev):

   -13.8255 -13.8210 -13.7183 -13.6358 -13.5854 -13.5111 -13.5076 -13.4275
   -13.3199 -13.3154  -0.4528   1.3215   5.3614   5.5730

          k = 0.8462-0.0769 0.8462 ( 57250 PWs)   bands (ev):

   -13.8366 -13.8232 -13.6930 -13.6378 -13.5676 -13.5270 -13.5076 -13.4539
   -13.3166 -13.3034  -0.0376   0.8583   4.9278   5.6138

          k = 0.7692 0.0000 0.7692 ( 57255 PWs)   bands (ev):

   -13.8449 -13.8241 -13.6847 -13.6096 -13.5606 -13.5366 -13.5335 -13.4623
   -13.3155 -13.2951   0.0385   0.7957   4.5876   5.7634

          k = 0.0000 0.9231 0.0000 ( 57186 PWs)   bands (ev):

   -13.8229 -13.8229 -13.7063 -13.6644 -13.5657 -13.5265 -13.4835 -13.4406
   -13.3169 -13.3169  -0.0600   0.8459   5.4750   5.4750

          k = 0.9231 0.0000 0.9231 ( 57206 PWs)   bands (ev):

   -13.8281 -13.8236 -13.6860 -13.6753 -13.5478 -13.5451 -13.4717 -13.4615
   -13.3158 -13.3115   0.3465   0.4261   5.2680   5.4890

          k =-0.1538 0.3077 0.0000 ( 57189 PWs)   bands (ev):

   -13.7950 -13.7881 -13.7668 -13.6865 -13.6644 -13.4618 -13.4169 -13.3846
   -13.3707 -13.3481  -2.3549   4.8308   6.7325   7.3487

          k =-0.2308 0.3846-0.0769 ( 57193 PWs)   bands (ev):

   -13.8053 -13.7984 -13.7550 -13.6734 -13.6469 -13.4782 -13.4306 -13.3988
   -13.3551 -13.3378  -2.0779   3.9270   6.2505   7.1313

          k =-0.3077 0.4615-0.1538 ( 57202 PWs)   bands (ev):

   -13.8147 -13.8066 -13.7407 -13.6605 -13.6336 -13.4883 -13.4426 -13.4179
   -13.3419 -13.3290  -1.7128   2.9965   5.9370   6.8697

          k =-0.3846 0.5385-0.2308 ( 57211 PWs)   bands (ev):

   -13.8220 -13.8115 -13.7278 -13.6489 -13.6277 -13.4898 -13.4533 -13.4361
   -13.3336 -13.3222  -1.3074   2.1805   5.7502   6.6567

          k = 0.5385-0.3846 0.6923 ( 57212 PWs)   bands (ev):

   -13.8259 -13.8137 -13.7201 -13.6393 -13.6292 -13.4834 -13.4659 -13.4457
   -13.3298 -13.3182  -0.9909   1.6508   5.6637   6.5394

          k =-0.1538 0.4615 0.0000 ( 57182 PWs)   bands (ev):

   -13.8044 -13.8007 -13.7624 -13.6669 -13.6265 -13.5082 -13.4296 -13.3863
   -13.3525 -13.3406  -1.9777   3.8090   6.1561   6.6401

          k =-0.2308 0.5385-0.0769 ( 57156 PWs)   bands (ev):

   -13.8165 -13.8090 -13.7444 -13.6525 -13.6102 -13.5236 -13.4449 -13.4064
   -13.3393 -13.3279  -1.6387   3.0368   5.7050   6.4303

          k =-0.3077 0.6154-0.1538 ( 57216 PWs)   bands (ev):

   -13.8279 -13.8144 -13.7246 -13.6383 -13.6019 -13.5292 -13.4608 -13.4290
   -13.3305 -13.3156  -1.2364   2.2741   5.3740   6.2499

          k = 0.6154-0.3077 0.7692 ( 57212 PWs)   bands (ev):

   -13.8352 -13.8180 -13.7084 -13.6257 -13.6036 -13.5233 -13.4770 -13.4466
   -13.3249 -13.3074  -0.8631   1.6777   5.1483   6.1781

          k = 0.5385-0.2308 0.6923 ( 57230 PWs)   bands (ev):

   -13.8373 -13.8198 -13.7009 -13.6222 -13.6078 -13.5118 -13.4872 -13.4553
   -13.3220 -13.3054  -0.7391   1.4996   5.0299   6.2337

          k = 0.4615-0.1538 0.6154 ( 57225 PWs)   bands (ev):

   -13.8337 -13.8197 -13.7044 -13.6351 -13.6064 -13.5106 -13.4730 -13.4559
   -13.3219 -13.3101  -0.9868   1.8656   5.0387   6.4049

          k = 0.3846-0.0769 0.5385 ( 57178 PWs)   bands (ev):

   -13.8248 -13.8174 -13.7183 -13.6496 -13.6128 -13.5075 -13.4525 -13.4441
   -13.3254 -13.3206  -1.3877   2.5317   5.2103   6.6603

          k = 0.3077 0.0000 0.4615 ( 57178 PWs)   bands (ev):

   -13.8125 -13.8120 -13.7376 -13.6622 -13.6279 -13.4958 -13.4425 -13.4178
   -13.3386 -13.3293  -1.7721   3.2665   5.5993   6.9405

          k =-0.1538 0.6154 0.0000 ( 57189 PWs)   bands (ev):

   -13.8140 -13.8131 -13.7499 -13.6388 -13.5831 -13.5579 -13.4559 -13.3953
   -13.3343 -13.3308  -1.4578   2.7874   5.7057   6.0418

          k =-0.2308 0.6923-0.0769 ( 57165 PWs)   bands (ev):

   -13.8271 -13.8185 -13.7263 -13.6226 -13.5741 -13.5659 -13.4735 -13.4212
   -13.3253 -13.3159  -1.0686   2.1449   5.2870   5.8696

          k = 0.6923-0.2308 0.8462 ( 57243 PWs)   bands (ev):

   -13.8382 -13.8222 -13.7029 -13.6073 -13.5776 -13.5598 -13.4919 -13.4458
   -13.3197 -13.3033  -0.6625   1.5684   4.9160   5.8128

          k = 0.6154-0.1538 0.7692 ( 57227 PWs)   bands (ev):

   -13.8441 -13.8243 -13.6883 -13.5977 -13.5784 -13.5540 -13.5075 -13.4604
   -13.3164 -13.2970  -0.4295   1.2733   4.6667   5.8891

          k = 0.5385-0.0769 0.6923 ( 57238 PWs)   bands (ev):

   -13.8435 -13.8247 -13.6865 -13.6099 -13.5829 -13.5372 -13.5066 -13.4635
   -13.3157 -13.2984  -0.6026   1.4911   4.5957   6.0815

          k = 0.4615 0.0000 0.6154 ( 57229 PWs)   bands (ev):

   -13.8364 -13.8227 -13.6972 -13.6328 -13.5936 -13.5242 -13.4786 -13.4595
   -13.3179 -13.3075  -0.9933   1.9995   4.7596   6.3584

          k =-0.1538 0.7692 0.0000 ( 57181 PWs)   bands (ev):

   -13.8225 -13.8224 -13.7272 -13.6075 -13.6045 -13.5375 -13.4895 -13.4182
   -13.3201 -13.3197  -0.8048   1.7891   5.4130   5.6083

          k = 0.7692-0.1538 0.9231 ( 57223 PWs)   bands (ev):

   -13.8345 -13.8254 -13.6998 -13.6168 -13.5868 -13.5270 -13.5089 -13.4466
   -13.3153 -13.3062  -0.3850   1.2655   5.0227   5.5218

          k = 0.6923-0.0769 0.8462 ( 57212 PWs)   bands (ev):

   -13.8438 -13.8270 -13.6805 -13.6057 -13.5720 -13.5363 -13.5265 -13.4657
   -13.3129 -13.2964  -0.0693   0.9196   4.6550   5.5984

          k = 0.6154 0.0000 0.7692 ( 57217 PWs)   bands (ev):

   -13.8471 -13.8269 -13.6782 -13.5790 -13.5730 -13.5597 -13.5291 -13.4680
   -13.3129 -13.2934  -0.2138   1.0827   4.4808   5.7949

          k = 0.8462-0.0769 1.0000 ( 57191 PWs)   bands (ev):

   -13.8275 -13.8273 -13.6946 -13.6540 -13.5664 -13.5272 -13.4927 -13.4518
   -13.3125 -13.3124  -0.0326   0.8400   5.2940   5.3579

          k = 0.7692 0.0000 0.9231 ( 57214 PWs)   bands (ev):

   -13.8371 -13.8280 -13.6752 -13.6477 -13.5520 -13.5438 -13.4972 -13.4710
   -13.3116 -13.3027   0.2837   0.5306   4.9317   5.4054

          k =-0.3077 0.6154 0.0000 ( 57180 PWs)   bands (ev):

   -13.8243 -13.8206 -13.7220 -13.6384 -13.5920 -13.5405 -13.4602 -13.4309
   -13.3215 -13.3215  -1.2779   2.4436   5.1991   6.2053

          k = 0.6154-0.3077 0.9231 ( 57222 PWs)   bands (ev):

   -13.8355 -13.8247 -13.6994 -13.6232 -13.5810 -13.5486 -13.4797 -13.4535
   -13.3169 -13.3073  -0.8684   1.8384   4.8872   5.9642

          k = 0.5385-0.2308 0.8462 ( 57201 PWs)   bands (ev):

   -13.8419 -13.8265 -13.6854 -13.6096 -13.5801 -13.5469 -13.4993 -13.4646
   -13.3145 -13.2996  -0.5318   1.3887   4.7458   5.8192

          k = 0.6923-0.2308 1.0000 ( 57209 PWs)   bands (ev):

   -13.8330 -13.8289 -13.6994 -13.6061 -13.5863 -13.5523 -13.4928 -13.4485
   -13.3123 -13.3090  -0.6667   1.6224   4.9783   5.5828

          k = 0.6154-0.1538 0.9231 ( 57211 PWs)   bands (ev):

   -13.8416 -13.8319 -13.6746 -13.5943 -13.5870 -13.5453 -13.5138 -13.4715
   -13.3085 -13.2990  -0.2710   1.1585   4.7382   5.4178

          k = 0.5385-0.0769 0.8462 ( 57222 PWs)   bands (ev):

   -13.8453 -13.8323 -13.6660 -13.5895 -13.5763 -13.5525 -13.5240 -13.4783
   -13.3078 -13.2951  -0.1513   1.0283   4.5958   5.4562

          k = 0.4615 0.0000 0.7692 ( 57228 PWs)   bands (ev):

   -13.8427 -13.8303 -13.6767 -13.6032 -13.5666 -13.5616 -13.5075 -13.4707
   -13.3101 -13.2986  -0.4592   1.3720   4.6268   5.6614

          k = 0.6923-0.0769 1.0000 ( 57212 PWs)   bands (ev):

   -13.8366 -13.8349 -13.6682 -13.6298 -13.5690 -13.5302 -13.5126 -13.4768
   -13.3050 -13.3034   0.0399   0.8132   4.9598   5.1597

          k = 0.6154 0.0000 0.9231 ( 57218 PWs)   bands (ev):

   -13.8433 -13.8351 -13.6541 -13.6174 -13.5610 -13.5440 -13.5216 -13.4886
   -13.3046 -13.2966   0.2168   0.6474   4.7188   5.1931

          k = 0.5385-0.0769 1.0000 ( 57208 PWs)   bands (ev):

   -13.8431 -13.8382 -13.6469 -13.6090 -13.5712 -13.5389 -13.5265 -13.4942
   -13.3016 -13.2968   0.1322   0.7492   4.7306   5.0839

     highest occupied level (ev):     8.0252

!    total energy              =    -325.65151679 Ry
     estimated scf accuracy    <       0.00000003 Ry

     The total energy is the sum of the following terms:
     one-electron contribution =    -150.92129617 Ry
     hartree contribution      =      93.15319669 Ry
     xc contribution           =     -95.22398695 Ry
     ewald contribution        =    -172.65943036 Ry

     convergence has been achieved in   8 iterations

     Writing all to output data dir ./alpha-sn-scf/alphatin.save/ :
     XML data file, charge density, pseudopotentials, collected wavefunctions

     init_run     :      1.78s CPU      1.87s WALL (       1 calls)
     electrons    :     18.61s CPU     19.12s WALL (       1 calls)

     Called by init_run:
     wfcinit      :      0.76s CPU      0.77s WALL (       1 calls)
     potinit      :      0.06s CPU      0.08s WALL (       1 calls)
     hinit0       :      0.49s CPU      0.51s WALL (       1 calls)

     Called by electrons:
     c_bands      :     15.17s CPU     15.40s WALL (       9 calls)
     sum_band     :      2.76s CPU      2.82s WALL (       9 calls)
     v_of_rho     :      0.42s CPU      0.47s WALL (       9 calls)
     newd         :      0.21s CPU      0.22s WALL (       9 calls)
     mix_rho      :      0.07s CPU      0.07s WALL (       9 calls)

     Called by c_bands:
     init_us_2    :      0.35s CPU      0.37s WALL (     399 calls)
     cegterg      :     14.36s CPU     14.50s WALL (     189 calls)

     Called by *egterg:
     cdiaghg      :      0.32s CPU      0.32s WALL (     853 calls)
     h_psi        :     13.00s CPU     13.12s WALL (     895 calls)
     s_psi        :      0.25s CPU      0.25s WALL (     895 calls)
     g_psi        :      0.03s CPU      0.04s WALL (     685 calls)

     Called by h_psi:
     h_psi:calbec :      0.60s CPU      0.61s WALL (     895 calls)
     vloc_psi     :     12.03s CPU     12.14s WALL (     895 calls)
     add_vuspsi   :      0.28s CPU      0.29s WALL (     895 calls)

     General routines
     calbec       :      0.69s CPU      0.70s WALL (    1084 calls)
     fft          :      0.68s CPU      0.73s WALL (     100 calls)
     ffts         :      0.02s CPU      0.03s WALL (       9 calls)
     fftw         :     12.46s CPU     12.58s WALL (   17668 calls)

     Parallel routines

     PWSCF        :     21.54s CPU     25.17s WALL


   This run was terminated on:  16: 4:23   4Feb2026            

=------------------------------------------------------------------------------=
   JOB DONE.
=------------------------------------------------------------------------------=
