
     Program PWSCF v.7.3.1 starts on  4Feb2026 at 16: 2:59 

     This program is part of the open-source Quantum ESPRESSO suite
     for quantum simulation of materials; please cite
         "P. Giannozzi et al., J. Phys.:Condens. Matter 21 395502 (2009);
         "P. Giannozzi et al., J. Phys.:Condens. Matter 29 465901 (2017);
         "P. Giannozzi et al., J. Chem. Phys. 152 154105 (2020);
          URL http://www.quantum-espresso.org", 
     in publications or presentations arising from this work. More details at
     http://www.quantum-espresso.org/quote

     Parallel version (MPI), running on   128 processors

     MPI processes distributed on     1 nodes
     241295 MiB available memory on the printing compute node when the environment starts

     Waiting for input...
     Reading input from standard input
     Message from routine read_cards :
     DEPRECATED: no units specified in ATOMIC_POSITIONS card
     Message from routine read_cards :
     ATOMIC_POSITIONS: units set to alat

     Current dimensions of program PWSCF are:
     Max number of different atomic species (ntypx) = 10
     Max number of k-points (npk) =  40000
     Max angular momentum in pseudopotentials (lmaxx) =  4

     K-points division:     npool     =       4
     R & G space division:  proc/nbgrp/npool/nimage =      32
     Subspace diagonalization in iterative solution of the eigenvalue problem:
     a serial algorithm will be used


     Parallelization info
     --------------------
     sticks:   dense  smooth     PW     G-vecs:    dense   smooth      PW
     Min         244     244     65                14289    14289    1977
     Max         245     245     66                14294    14294    1978
     Sum        7813    7813   2095               457287   457287   63279

     Using Slab Decomposition



     bravais-lattice index     =            2
     lattice parameter (alat)  =      12.2300  a.u.
     unit-cell volume          =     457.3191 (a.u.)^3
     number of atoms/cell      =            2
     number of atomic types    =            1
     number of electrons       =        28.00
     number of Kohn-Sham states=           14
     kinetic-energy cutoff     =     380.0000  Ry
     charge density cutoff     =    1520.0000  Ry
     scf convergence threshold =      1.0E-07
     mixing beta               =       0.7000
     number of iterations used =            8  plain     mixing
     Exchange-correlation=  SLA  PW   GGX  GGC
                           (   1   4   2   2   0   0   0)

     celldm(1)=  12.230000  celldm(2)=   0.000000  celldm(3)=   0.000000
     celldm(4)=   0.000000  celldm(5)=   0.000000  celldm(6)=   0.000000

     crystal axes: (cart. coord. in units of alat)
               a(1) = (  -0.500000   0.000000   0.500000 )  
               a(2) = (   0.000000   0.500000   0.500000 )  
               a(3) = (  -0.500000   0.500000   0.000000 )  

     reciprocal axes: (cart. coord. in units 2 pi/alat)
               b(1) = ( -1.000000 -1.000000  1.000000 )  
               b(2) = (  1.000000  1.000000  1.000000 )  
               b(3) = ( -1.000000  1.000000 -1.000000 )  


     PseudoPot. # 1 for Sn read from file:
     ./Sn.pw91-n-van.UPF
     MD5 check sum: a38d2a872edd1a4efd76c0a1a38f7031
     Pseudo is Ultrasoft + core correction, Zval = 14.0
     Generated by new atomic code, or converted to UPF format
     Using radial grid of  891 points,  6 beta functions with: 
                l(1) =   0
                l(2) =   0
                l(3) =   1
                l(4) =   1
                l(5) =   2
                l(6) =   2
     Q(r) pseudized with  8 coefficients,  rinner =    1.100   1.100   1.100
                                                       1.100   1.100

     atomic species   valence    mass     pseudopotential
     Sn               14.00   118.70000     Sn( 1.00)

     48 Sym. Ops., with inversion, found (24 have fractional translation)



   Cartesian axes

     site n.     atom                  positions (alat units)
         1        Sn     tau(   1) = (   0.0000000   0.0000000   0.0000000  )
         2        Sn     tau(   2) = (   0.2500000   0.2500000   0.2500000  )

     number of k points=    47
                       cart. coord. in units 2pi/alat
        k(    1) = (   0.0000000   0.0000000   0.0000000), wk =   0.0020000
        k(    2) = (  -0.1000000   0.1000000  -0.1000000), wk =   0.0160000
        k(    3) = (  -0.2000000   0.2000000  -0.2000000), wk =   0.0160000
        k(    4) = (  -0.3000000   0.3000000  -0.3000000), wk =   0.0160000
        k(    5) = (  -0.4000000   0.4000000  -0.4000000), wk =   0.0160000
        k(    6) = (   0.5000000  -0.5000000   0.5000000), wk =   0.0080000
        k(    7) = (   0.0000000   0.2000000   0.0000000), wk =   0.0120000
        k(    8) = (  -0.1000000   0.3000000  -0.1000000), wk =   0.0480000
        k(    9) = (  -0.2000000   0.4000000  -0.2000000), wk =   0.0480000
        k(   10) = (  -0.3000000   0.5000000  -0.3000000), wk =   0.0480000
        k(   11) = (   0.6000000  -0.4000000   0.6000000), wk =   0.0480000
        k(   12) = (   0.5000000  -0.3000000   0.5000000), wk =   0.0480000
        k(   13) = (   0.4000000  -0.2000000   0.4000000), wk =   0.0480000
        k(   14) = (   0.3000000  -0.1000000   0.3000000), wk =   0.0480000
        k(   15) = (   0.2000000   0.0000000   0.2000000), wk =   0.0240000
        k(   16) = (   0.0000000   0.4000000   0.0000000), wk =   0.0120000
        k(   17) = (  -0.1000000   0.5000000  -0.1000000), wk =   0.0480000
        k(   18) = (  -0.2000000   0.6000000  -0.2000000), wk =   0.0480000
        k(   19) = (   0.7000000  -0.3000000   0.7000000), wk =   0.0480000
        k(   20) = (   0.6000000  -0.2000000   0.6000000), wk =   0.0480000
        k(   21) = (   0.5000000  -0.1000000   0.5000000), wk =   0.0480000
        k(   22) = (   0.4000000   0.0000000   0.4000000), wk =   0.0240000
        k(   23) = (   0.0000000   0.6000000   0.0000000), wk =   0.0120000
        k(   24) = (  -0.1000000   0.7000000  -0.1000000), wk =   0.0480000
        k(   25) = (   0.8000000  -0.2000000   0.8000000), wk =   0.0480000
        k(   26) = (   0.7000000  -0.1000000   0.7000000), wk =   0.0480000
        k(   27) = (   0.6000000  -0.0000000   0.6000000), wk =   0.0240000
        k(   28) = (   0.0000000   0.8000000   0.0000000), wk =   0.0120000
        k(   29) = (   0.9000000  -0.1000000   0.9000000), wk =   0.0480000
        k(   30) = (   0.8000000   0.0000000   0.8000000), wk =   0.0240000
        k(   31) = (   0.0000000  -1.0000000   0.0000000), wk =   0.0060000
        k(   32) = (  -0.2000000   0.4000000   0.0000000), wk =   0.0480000
        k(   33) = (  -0.3000000   0.5000000  -0.1000000), wk =   0.0960000
        k(   34) = (   0.6000000  -0.4000000   0.8000000), wk =   0.0960000
        k(   35) = (   0.5000000  -0.3000000   0.7000000), wk =   0.0480000
        k(   36) = (  -0.2000000   0.6000000   0.0000000), wk =   0.0480000
        k(   37) = (   0.7000000  -0.3000000   0.9000000), wk =   0.0960000
        k(   38) = (   0.6000000  -0.2000000   0.8000000), wk =   0.0960000
        k(   39) = (   0.5000000  -0.1000000   0.7000000), wk =   0.0960000
        k(   40) = (   0.4000000   0.0000000   0.6000000), wk =   0.0480000
        k(   41) = (   0.8000000  -0.2000000   1.0000000), wk =   0.0480000
        k(   42) = (   0.7000000  -0.1000000   0.9000000), wk =   0.0960000
        k(   43) = (   0.6000000   0.0000000   0.8000000), wk =   0.0480000
        k(   44) = (  -0.2000000  -1.0000000   0.0000000), wk =   0.0240000
        k(   45) = (   0.6000000  -0.2000000   1.0000000), wk =   0.0480000
        k(   46) = (   0.5000000  -0.1000000   0.9000000), wk =   0.0480000
        k(   47) = (  -0.4000000  -1.0000000   0.0000000), wk =   0.0240000

     Dense  grid:   457287 G-vectors     FFT dimensions: ( 108, 108, 108)

     Estimated max dynamical RAM per process >      28.63 MB

     Estimated total dynamical RAM >       3.25 GB

     Initial potential from superposition of free atoms

     starting charge      27.9964, renormalised to      28.0000

     negative rho (up, down):  2.695E-05 0.000E+00
     Starting wfcs are   18 randomized atomic wfcs

     total cpu time spent up to now is        1.8 secs

     per-process dynamical memory:    26.3 Mb

     Self-consistent Calculation

     iteration #  1     ecut=   380.00 Ry     beta= 0.70
     Davidson diagonalization with overlap
     ethr =  1.00E-02,  avg # of iterations =  2.9

     Threshold (ethr) on eigenvalues was too large:
     Diagonalizing with lowered threshold

     Davidson diagonalization with overlap
     ethr =  7.38E-05,  avg # of iterations =  4.2

     negative rho (up, down):  1.443E-05 0.000E+00

     total cpu time spent up to now is        4.2 secs

     total energy              =    -325.51655635 Ry
     estimated scf accuracy    <       0.02483525 Ry

     iteration #  2     ecut=   380.00 Ry     beta= 0.70
     Davidson diagonalization with overlap
     ethr =  8.87E-05,  avg # of iterations =  4.9

     negative rho (up, down):  8.565E-06 0.000E+00

     total cpu time spent up to now is        5.8 secs

     total energy              =    -325.61109716 Ry
     estimated scf accuracy    <       0.04794758 Ry

     iteration #  3     ecut=   380.00 Ry     beta= 0.70
     Davidson diagonalization with overlap
     ethr =  8.87E-05,  avg # of iterations =  2.1

     total cpu time spent up to now is        6.9 secs

     total energy              =    -325.64446804 Ry
     estimated scf accuracy    <       0.01938706 Ry

     iteration #  4     ecut=   380.00 Ry     beta= 0.70
     Davidson diagonalization with overlap
     ethr =  6.92E-05,  avg # of iterations =  2.1

     total cpu time spent up to now is        8.0 secs

     total energy              =    -325.65040350 Ry
     estimated scf accuracy    <       0.00007842 Ry

     iteration #  5     ecut=   380.00 Ry     beta= 0.70
     Davidson diagonalization with overlap
     ethr =  2.80E-07,  avg # of iterations =  4.3

     total cpu time spent up to now is        9.4 secs

     total energy              =    -325.65128752 Ry
     estimated scf accuracy    <       0.00008034 Ry

     iteration #  6     ecut=   380.00 Ry     beta= 0.70
     Davidson diagonalization with overlap
     ethr =  2.80E-07,  avg # of iterations =  2.0

     total cpu time spent up to now is       10.4 secs

     total energy              =    -325.65132460 Ry
     estimated scf accuracy    <       0.00000021 Ry

     iteration #  7     ecut=   380.00 Ry     beta= 0.70
     Davidson diagonalization with overlap
     ethr =  7.40E-10,  avg # of iterations =  4.7

     total cpu time spent up to now is       12.0 secs

     End of self-consistent calculation

          k = 0.0000 0.0000 0.0000 ( 57001 PWs)   bands (ev):

   -13.7722 -13.7722 -13.7722 -13.7117 -13.7117 -13.3953 -13.3953 -13.3953
   -13.3862 -13.3862  -2.7374   7.2936   8.0251   8.0251

          k =-0.1000 0.1000-0.1000 ( 57203 PWs)   bands (ev):

   -13.7800 -13.7800 -13.7697 -13.7009 -13.7009 -13.4128 -13.4128 -13.3985
   -13.3706 -13.3706  -2.6397   6.1374   7.8276   7.8276

          k =-0.2000 0.2000-0.2000 ( 57215 PWs)   bands (ev):

   -13.7929 -13.7929 -13.7631 -13.6807 -13.6807 -13.4325 -13.4325 -13.4070
   -13.3553 -13.3553  -2.3530   4.6100   7.4477   7.4477

          k =-0.3000 0.3000-0.3000 ( 57185 PWs)   bands (ev):

   -13.8025 -13.8025 -13.7547 -13.6631 -13.6631 -13.4470 -13.4470 -13.4177
   -13.3450 -13.3450  -1.9039   3.2014   7.1069   7.1069

          k =-0.4000 0.4000-0.4000 ( 57260 PWs)   bands (ev):

   -13.8076 -13.8076 -13.7476 -13.6529 -13.6529 -13.4546 -13.4546 -13.4266
   -13.3395 -13.3395  -1.3845   2.0855   6.8852   6.8852

          k = 0.5000-0.5000 0.5000 ( 57200 PWs)   bands (ev):

   -13.8091 -13.8091 -13.7449 -13.6498 -13.6498 -13.4567 -13.4567 -13.4301
   -13.3379 -13.3379  -1.1000   1.5993   6.8091   6.8091

          k = 0.0000 0.2000 0.0000 ( 57206 PWs)   bands (ev):

   -13.7785 -13.7780 -13.7780 -13.7035 -13.6898 -13.4362 -13.3940 -13.3871
   -13.3871 -13.3641  -2.6068   6.0417   7.5016   7.5016

          k =-0.1000 0.3000-0.1000 ( 57184 PWs)   bands (ev):

   -13.7942 -13.7875 -13.7698 -13.6889 -13.6677 -13.4609 -13.4135 -13.3895
   -13.3693 -13.3518  -2.3816   4.9071   7.0994   7.1012

          k =-0.2000 0.4000-0.2000 ( 57202 PWs)   bands (ev):

   -13.8086 -13.7983 -13.7559 -13.6702 -13.6477 -13.4783 -13.4329 -13.4049
   -13.3539 -13.3375  -1.9815   3.5667   6.6499   6.7857

          k =-0.3000 0.5000-0.3000 ( 57219 PWs)   bands (ev):

   -13.8180 -13.8063 -13.7408 -13.6543 -13.6378 -13.4831 -13.4493 -13.4237
   -13.3427 -13.3278  -1.4659   2.3808   6.2718   6.6205

          k = 0.6000-0.4000 0.6000 ( 57220 PWs)   bands (ev):

   -13.8216 -13.8113 -13.7304 -13.6427 -13.6398 -13.4740 -13.4625 -13.4392
   -13.3352 -13.3246  -1.0471   1.6466   6.0315   6.6215

          k = 0.5000-0.3000 0.5000 ( 57229 PWs)   bands (ev):

   -13.8192 -13.8133 -13.7297 -13.6491 -13.6374 -13.4711 -13.4570 -13.4449
   -13.3317 -13.3285  -1.1515   1.8162   5.9563   6.7849

          k = 0.4000-0.2000 0.4000 ( 57200 PWs)   bands (ev):

   -13.8113 -13.8112 -13.7395 -13.6614 -13.6421 -13.4705 -13.4496 -13.4270
   -13.3395 -13.3329  -1.6454   2.7487   6.0663   7.0876

          k = 0.3000-0.1000 0.3000 ( 57187 PWs)   bands (ev):

   -13.8042 -13.7984 -13.7545 -13.6764 -13.6585 -13.4580 -13.4401 -13.4028
   -13.3569 -13.3399  -2.1340   3.9990   6.3887   7.4745

          k = 0.2000 0.0000 0.2000 ( 57187 PWs)   bands (ev):

   -13.7923 -13.7842 -13.7671 -13.6926 -13.6815 -13.4370 -13.4245 -13.3839
   -13.3785 -13.3528  -2.4785   5.2678   6.9940   7.8075

          k = 0.0000 0.4000 0.0000 ( 57178 PWs)   bands (ev):

   -13.7921 -13.7921 -13.7804 -13.6799 -13.6423 -13.4949 -13.4167 -13.3664
   -13.3664 -13.3594  -2.2177   4.5139   6.6848   6.6848

          k =-0.1000 0.5000-0.1000 ( 57175 PWs)   bands (ev):

   -13.8088 -13.8012 -13.7643 -13.6618 -13.6170 -13.5221 -13.4356 -13.3840
   -13.3523 -13.3397  -1.8716   3.5711   6.1915   6.3636

          k =-0.2000 0.6000-0.2000 ( 57168 PWs)   bands (ev):

   -13.8255 -13.8097 -13.7388 -13.6420 -13.6024 -13.5347 -13.4571 -13.4132
   -13.3390 -13.3202  -1.3807   2.5231   5.6299   6.2004

          k = 0.7000-0.3000 0.7000 ( 57222 PWs)   bands (ev):

   -13.8361 -13.8161 -13.7152 -13.6243 -13.6057 -13.5270 -13.4778 -13.4402
   -13.3292 -13.3084  -0.8814   1.6917   5.2051   6.2166

          k = 0.6000-0.2000 0.6000 ( 57211 PWs)   bands (ev):

   -13.8380 -13.8196 -13.7033 -13.6241 -13.6123 -13.5021 -13.4939 -13.4556
   -13.3237 -13.3069  -0.7899   1.5598   4.9925   6.4084

          k = 0.5000-0.1000 0.5000 ( 57211 PWs)   bands (ev):

   -13.8307 -13.8194 -13.7094 -13.6473 -13.6141 -13.4966 -13.4677 -13.4564
   -13.3233 -13.3169  -1.2269   2.2391   5.0487   6.7471

          k = 0.4000 0.0000 0.4000 ( 57213 PWs)   bands (ev):

   -13.8156 -13.8142 -13.7315 -13.6644 -13.6327 -13.4821 -13.4533 -13.4266
   -13.3366 -13.3288  -1.7408   3.1754   5.4762   7.1590

          k = 0.0000 0.6000 0.0000 ( 57198 PWs)   bands (ev):

   -13.8081 -13.8081 -13.7664 -13.6434 -13.5838 -13.5611 -13.4521 -13.3761
   -13.3423 -13.3423  -1.5784   3.0323   6.0181   6.0181

          k =-0.1000 0.7000-0.1000 ( 57160 PWs)   bands (ev):

   -13.8224 -13.8152 -13.7425 -13.6215 -13.5874 -13.5585 -13.4745 -13.4039
   -13.3314 -13.3233  -1.1238   2.2439   5.5387   5.8271

          k = 0.8000-0.2000 0.8000 ( 57174 PWs)   bands (ev):

   -13.8385 -13.8206 -13.7099 -13.5996 -13.5936 -13.5502 -13.4986 -13.4394
   -13.3229 -13.3047  -0.5893   1.4903   4.9362   5.8192

          k = 0.7000-0.1000 0.7000 ( 57247 PWs)   bands (ev):

   -13.8471 -13.8238 -13.6903 -13.5832 -13.5785 -13.5621 -13.5189 -13.4597
   -13.3182 -13.2957  -0.3296   1.1773   4.5438   5.9951

          k = 0.6000-0.0000 0.6000 ( 57197 PWs)   bands (ev):

   -13.8445 -13.8236 -13.6905 -13.6145 -13.5886 -13.5189 -13.5181 -13.4622
   -13.3183 -13.2997  -0.7076   1.6282   4.5350   6.3283

          k = 0.0000 0.8000 0.0000 ( 57178 PWs)   bands (ev):

   -13.8201 -13.8201 -13.7348 -13.6274 -13.5976 -13.5218 -13.4970 -13.4119
   -13.3238 -13.3238  -0.7044   1.6397   5.5970   5.5970

          k = 0.9000-0.1000 0.9000 ( 57208 PWs)   bands (ev):

   -13.8305 -13.8235 -13.7044 -13.6486 -13.5732 -13.5221 -13.5002 -13.4441
   -13.3184 -13.3116  -0.1641   0.9829   5.2047   5.5485

          k = 0.8000 0.0000 0.8000 ( 57291 PWs)   bands (ev):

   -13.8433 -13.8250 -13.6858 -13.6263 -13.5581 -13.5400 -13.5198 -13.4631
   -13.3165 -13.2986   0.1301   0.6922   4.6949   5.6880

          k = 0.0000-1.0000 0.0000 ( 57162 PWs)   bands (ev):

   -13.8245 -13.8245 -13.6872 -13.6872 -13.5471 -13.5471 -13.4623 -13.4623
   -13.3169 -13.3169   0.3799   0.3799   5.4537   5.4537

          k =-0.2000 0.4000 0.0000 ( 57209 PWs)   bands (ev):

   -13.8046 -13.7993 -13.7594 -13.6749 -13.6438 -13.4871 -13.4282 -13.3941
   -13.3575 -13.3405  -2.0969   4.0499   6.2090   7.0295

          k =-0.3000 0.5000-0.1000 ( 57206 PWs)   bands (ev):

   -13.8182 -13.8112 -13.7378 -13.6579 -13.6234 -13.5046 -13.4453 -13.4204
   -13.3385 -13.3277  -1.6495   2.9754   5.6493   6.7207

          k = 0.6000-0.4000 0.8000 ( 57200 PWs)   bands (ev):

   -13.8297 -13.8167 -13.7176 -13.6414 -13.6157 -13.5071 -13.4629 -13.4454
   -13.3288 -13.3161  -1.1259   1.9944   5.3706   6.4443

          k = 0.5000-0.3000 0.7000 ( 57232 PWs)   bands (ev):

   -13.8338 -13.8183 -13.7094 -13.6305 -13.6189 -13.4996 -13.4791 -13.4528
   -13.3261 -13.3113  -0.8321   1.5370   5.2878   6.3389

          k =-0.2000 0.6000 0.0000 ( 57195 PWs)   bands (ev):

   -13.8165 -13.8158 -13.7449 -13.6427 -13.5912 -13.5494 -13.4550 -13.4045
   -13.3336 -13.3295  -1.4733   2.7973   5.5958   6.1425

          k = 0.7000-0.3000 0.9000 ( 57193 PWs)   bands (ev):

   -13.8331 -13.8221 -13.7143 -13.6226 -13.5780 -13.5601 -13.4779 -13.4375
   -13.3228 -13.3114  -0.9537   1.9579   5.0939   5.9010

          k = 0.6000-0.2000 0.8000 ( 57236 PWs)   bands (ev):

   -13.8431 -13.8254 -13.6912 -13.6066 -13.5819 -13.5511 -13.5005 -13.4604
   -13.3177 -13.3002  -0.5187   1.3638   4.7676   5.8572

          k = 0.5000-0.1000 0.7000 ( 57238 PWs)   bands (ev):

   -13.8426 -13.8259 -13.6890 -13.6163 -13.5857 -13.5378 -13.4990 -13.4643
   -13.3167 -13.3015  -0.6571   1.5443   4.6845   6.0409

          k = 0.4000 0.0000 0.6000 ( 57172 PWs)   bands (ev):

   -13.8318 -13.8225 -13.7083 -13.6405 -13.5985 -13.5264 -13.4638 -13.4537
   -13.3205 -13.3152  -1.1702   2.2536   4.9462   6.3835

          k = 0.8000-0.2000 1.0000 ( 57185 PWs)   bands (ev):

   -13.8277 -13.8269 -13.7149 -13.6124 -13.5985 -13.5338 -13.4984 -13.4331
   -13.3164 -13.3160  -0.6292   1.5630   5.2534   5.5181

          k = 0.7000-0.1000 0.9000 ( 57212 PWs)   bands (ev):

   -13.8416 -13.8299 -13.6809 -13.6157 -13.5765 -13.5291 -13.5233 -13.4670
   -13.3122 -13.3005  -0.1077   0.9647   4.7910   5.4482

          k = 0.6000 0.0000 0.8000 ( 57242 PWs)   bands (ev):

   -13.8477 -13.8297 -13.6744 -13.5807 -13.5787 -13.5543 -13.5318 -13.4728
   -13.3120 -13.2946  -0.1502   1.0204   4.5086   5.6599

          k =-0.2000-1.0000 0.0000 ( 57218 PWs)   bands (ev):

   -13.8315 -13.8315 -13.6694 -13.6694 -13.5483 -13.5483 -13.4787 -13.4787
   -13.3101 -13.3101   0.4002   0.4002   5.2207   5.2207

          k = 0.6000-0.2000 1.0000 ( 57200 PWs)   bands (ev):

   -13.8411 -13.8330 -13.6790 -13.6004 -13.5827 -13.5528 -13.5069 -13.4701
   -13.3094 -13.3020  -0.4249   1.3392   4.7393   5.4952

          k = 0.5000-0.1000 0.9000 ( 57212 PWs)   bands (ev):

   -13.8456 -13.8355 -13.6604 -13.5939 -13.5789 -13.5477 -13.5268 -13.4848
   -13.3065 -13.2965  -0.0697   0.9495   4.6374   5.3116

          k =-0.4000-1.0000 0.0000 ( 57190 PWs)   bands (ev):

   -13.8409 -13.8409 -13.6359 -13.6359 -13.5540 -13.5540 -13.5065 -13.5065
   -13.3008 -13.3008   0.4341   0.4341   4.9157   4.9157

     highest occupied level (ev):     8.0251

!    total energy              =    -325.65132710 Ry
     estimated scf accuracy    <       0.00000003 Ry

     The total energy is the sum of the following terms:
     one-electron contribution =    -150.92454827 Ry
     hartree contribution      =      93.15719569 Ry
     xc contribution           =     -95.22454416 Ry
     ewald contribution        =    -172.65943036 Ry

     convergence has been achieved in   7 iterations

     Writing all to output data dir ./alpha-sn-scf/alphatin.save/ :
     XML data file, charge density, pseudopotentials, collected wavefunctions

     init_run     :      1.45s CPU      1.55s WALL (       1 calls)
     electrons    :      9.98s CPU     10.34s WALL (       1 calls)

     Called by init_run:
     wfcinit      :      0.42s CPU      0.45s WALL (       1 calls)
     potinit      :      0.07s CPU      0.08s WALL (       1 calls)
     hinit0       :      0.50s CPU      0.52s WALL (       1 calls)

     Called by electrons:
     c_bands      :      7.84s CPU      7.93s WALL (       8 calls)
     sum_band     :      1.55s CPU      1.58s WALL (       8 calls)
     v_of_rho     :      0.38s CPU      0.42s WALL (       8 calls)
     newd         :      0.17s CPU      0.20s WALL (       8 calls)
     mix_rho      :      0.05s CPU      0.06s WALL (       8 calls)

     Called by c_bands:
     init_us_2    :      0.18s CPU      0.19s WALL (     204 calls)
     cegterg      :      7.37s CPU      7.42s WALL (      96 calls)

     Called by *egterg:
     cdiaghg      :      0.17s CPU      0.17s WALL (     447 calls)
     h_psi        :      6.70s CPU      6.75s WALL (     471 calls)
     s_psi        :      0.13s CPU      0.13s WALL (     471 calls)
     g_psi        :      0.02s CPU      0.02s WALL (     363 calls)

     Called by h_psi:
     h_psi:calbec :      0.31s CPU      0.31s WALL (     471 calls)
     vloc_psi     :      6.19s CPU      6.23s WALL (     471 calls)
     add_vuspsi   :      0.15s CPU      0.15s WALL (     471 calls)

     General routines
     calbec       :      0.36s CPU      0.36s WALL (     567 calls)
     fft          :      0.66s CPU      0.71s WALL (      89 calls)
     ffts         :      0.02s CPU      0.03s WALL (       8 calls)
     fftw         :      6.37s CPU      6.41s WALL (    9044 calls)

     Parallel routines

     PWSCF        :     11.84s CPU     14.18s WALL


   This run was terminated on:  16: 3:13   4Feb2026            

=------------------------------------------------------------------------------=
   JOB DONE.
=------------------------------------------------------------------------------=
