
     Program PWSCF v.7.3.1 starts on  4Feb2026 at 16: 4:54 

     This program is part of the open-source Quantum ESPRESSO suite
     for quantum simulation of materials; please cite
         "P. Giannozzi et al., J. Phys.:Condens. Matter 21 395502 (2009);
         "P. Giannozzi et al., J. Phys.:Condens. Matter 29 465901 (2017);
         "P. Giannozzi et al., J. Chem. Phys. 152 154105 (2020);
          URL http://www.quantum-espresso.org", 
     in publications or presentations arising from this work. More details at
     http://www.quantum-espresso.org/quote

     Parallel version (MPI), running on   128 processors

     MPI processes distributed on     1 nodes
     240406 MiB available memory on the printing compute node when the environment starts

     Waiting for input...
     Reading input from standard input
     Message from routine read_cards :
     DEPRECATED: no units specified in ATOMIC_POSITIONS card
     Message from routine read_cards :
     ATOMIC_POSITIONS: units set to alat

     Current dimensions of program PWSCF are:
     Max number of different atomic species (ntypx) = 10
     Max number of k-points (npk) =  40000
     Max angular momentum in pseudopotentials (lmaxx) =  4

     K-points division:     npool     =       4
     R & G space division:  proc/nbgrp/npool/nimage =      32
     Subspace diagonalization in iterative solution of the eigenvalue problem:
     a serial algorithm will be used


     Parallelization info
     --------------------
     sticks:   dense  smooth     PW     G-vecs:    dense   smooth      PW
     Min         244     244     65                14289    14289    1980
     Max         245     245     66                14294    14294    1981
     Sum        7813    7813   2095               457287   457287   63375

     Using Slab Decomposition



     bravais-lattice index     =            2
     lattice parameter (alat)  =      12.2300  a.u.
     unit-cell volume          =     457.3191 (a.u.)^3
     number of atoms/cell      =            2
     number of atomic types    =            1
     number of electrons       =        28.00
     number of Kohn-Sham states=           14
     kinetic-energy cutoff     =     380.0000  Ry
     charge density cutoff     =    1520.0000  Ry
     scf convergence threshold =      1.0E-07
     mixing beta               =       0.7000
     number of iterations used =            8  plain     mixing
     Exchange-correlation=  SLA  PW   GGX  GGC
                           (   1   4   2   2   0   0   0)

     celldm(1)=  12.230000  celldm(2)=   0.000000  celldm(3)=   0.000000
     celldm(4)=   0.000000  celldm(5)=   0.000000  celldm(6)=   0.000000

     crystal axes: (cart. coord. in units of alat)
               a(1) = (  -0.500000   0.000000   0.500000 )  
               a(2) = (   0.000000   0.500000   0.500000 )  
               a(3) = (  -0.500000   0.500000   0.000000 )  

     reciprocal axes: (cart. coord. in units 2 pi/alat)
               b(1) = ( -1.000000 -1.000000  1.000000 )  
               b(2) = (  1.000000  1.000000  1.000000 )  
               b(3) = ( -1.000000  1.000000 -1.000000 )  


     PseudoPot. # 1 for Sn read from file:
     ./Sn.pw91-n-van.UPF
     MD5 check sum: a38d2a872edd1a4efd76c0a1a38f7031
     Pseudo is Ultrasoft + core correction, Zval = 14.0
     Generated by new atomic code, or converted to UPF format
     Using radial grid of  891 points,  6 beta functions with: 
                l(1) =   0
                l(2) =   0
                l(3) =   1
                l(4) =   1
                l(5) =   2
                l(6) =   2
     Q(r) pseudized with  8 coefficients,  rinner =    1.100   1.100   1.100
                                                       1.100   1.100

     atomic species   valence    mass     pseudopotential
     Sn               14.00   118.70000     Sn( 1.00)

     48 Sym. Ops., with inversion, found (24 have fractional translation)



   Cartesian axes

     site n.     atom                  positions (alat units)
         1        Sn     tau(   1) = (   0.0000000   0.0000000   0.0000000  )
         2        Sn     tau(   2) = (   0.2500000   0.2500000   0.2500000  )

     number of k points=   120

     Number of k-points >= 100: set verbosity='high' to print them.

     Dense  grid:   457287 G-vectors     FFT dimensions: ( 108, 108, 108)

     Estimated max dynamical RAM per process >      35.50 MB

     Estimated total dynamical RAM >       4.11 GB

     Initial potential from superposition of free atoms

     starting charge      27.9964, renormalised to      28.0000

     negative rho (up, down):  2.695E-05 0.000E+00
     Starting wfcs are   18 randomized atomic wfcs

     total cpu time spent up to now is        2.5 secs

     per-process dynamical memory:    32.7 Mb

     Self-consistent Calculation

     iteration #  1     ecut=   380.00 Ry     beta= 0.70
     Davidson diagonalization with overlap
     ethr =  1.00E-02,  avg # of iterations =  3.1

     Threshold (ethr) on eigenvalues was too large:
     Diagonalizing with lowered threshold

     Davidson diagonalization with overlap
     ethr =  7.52E-05,  avg # of iterations =  4.0

     negative rho (up, down):  1.450E-05 0.000E+00

     total cpu time spent up to now is        8.3 secs

     total energy              =    -325.51723795 Ry
     estimated scf accuracy    <       0.02498384 Ry

     iteration #  2     ecut=   380.00 Ry     beta= 0.70
     Davidson diagonalization with overlap
     ethr =  8.92E-05,  avg # of iterations =  5.0

     negative rho (up, down):  8.636E-06 0.000E+00

     total cpu time spent up to now is       12.1 secs

     total energy              =    -325.61210867 Ry
     estimated scf accuracy    <       0.04838127 Ry

     iteration #  3     ecut=   380.00 Ry     beta= 0.70
     Davidson diagonalization with overlap
     ethr =  8.92E-05,  avg # of iterations =  2.0

     total cpu time spent up to now is       14.5 secs

     total energy              =    -325.64429539 Ry
     estimated scf accuracy    <       0.01928098 Ry

     iteration #  4     ecut=   380.00 Ry     beta= 0.70
     Davidson diagonalization with overlap
     ethr =  6.89E-05,  avg # of iterations =  2.1

     total cpu time spent up to now is       17.0 secs

     total energy              =    -325.65060560 Ry
     estimated scf accuracy    <       0.00007050 Ry

     iteration #  5     ecut=   380.00 Ry     beta= 0.70
     Davidson diagonalization with overlap
     ethr =  2.52E-07,  avg # of iterations =  4.3

     total cpu time spent up to now is       20.3 secs

     total energy              =    -325.65149823 Ry
     estimated scf accuracy    <       0.00009557 Ry

     iteration #  6     ecut=   380.00 Ry     beta= 0.70
     Davidson diagonalization with overlap
     ethr =  2.52E-07,  avg # of iterations =  2.0

     total cpu time spent up to now is       22.9 secs

     total energy              =    -325.65155027 Ry
     estimated scf accuracy    <       0.00000060 Ry

     iteration #  7     ecut=   380.00 Ry     beta= 0.70
     Davidson diagonalization with overlap
     ethr =  2.15E-09,  avg # of iterations =  4.0

     total cpu time spent up to now is       26.0 secs

     End of self-consistent calculation

     Number of k-points >= 100: set verbosity='high' to print the bands.

     highest occupied level (ev):     8.0240

!    total energy              =    -325.65155234 Ry
     estimated scf accuracy    <       0.00000004 Ry

     The total energy is the sum of the following terms:
     one-electron contribution =    -150.92265199 Ry
     hartree contribution      =      93.15486304 Ry
     xc contribution           =     -95.22433304 Ry
     ewald contribution        =    -172.65943036 Ry

     convergence has been achieved in   7 iterations

     Writing all to output data dir ./alpha-sn-scf/alphatin.save/ :
     XML data file, charge density, pseudopotentials, collected wavefunctions

     init_run     :      2.09s CPU      2.22s WALL (       1 calls)
     electrons    :     23.14s CPU     23.67s WALL (       1 calls)

     Called by init_run:
     wfcinit      :      1.08s CPU      1.13s WALL (       1 calls)
     potinit      :      0.05s CPU      0.08s WALL (       1 calls)
     hinit0       :      0.49s CPU      0.51s WALL (       1 calls)

     Called by electrons:
     c_bands      :     19.13s CPU     19.39s WALL (       8 calls)
     sum_band     :      3.41s CPU      3.48s WALL (       8 calls)
     v_of_rho     :      0.37s CPU      0.42s WALL (       8 calls)
     newd         :      0.17s CPU      0.20s WALL (       8 calls)
     mix_rho      :      0.05s CPU      0.06s WALL (       8 calls)

     Called by c_bands:
     init_us_2    :      0.45s CPU      0.47s WALL (     510 calls)
     cegterg      :     17.99s CPU     18.15s WALL (     240 calls)

     Called by *egterg:
     cdiaghg      :      0.42s CPU      0.42s WALL (    1098 calls)
     h_psi        :     16.37s CPU     16.53s WALL (    1158 calls)
     s_psi        :      0.32s CPU      0.32s WALL (    1158 calls)
     g_psi        :      0.04s CPU      0.04s WALL (     888 calls)

     Called by h_psi:
     h_psi:calbec :      0.76s CPU      0.77s WALL (    1158 calls)
     vloc_psi     :     15.15s CPU     15.30s WALL (    1158 calls)
     add_vuspsi   :      0.36s CPU      0.37s WALL (    1158 calls)

     General routines
     calbec       :      0.88s CPU      0.89s WALL (    1398 calls)
     fft          :      0.65s CPU      0.71s WALL (      89 calls)
     ffts         :      0.03s CPU      0.03s WALL (       8 calls)
     fftw         :     15.61s CPU     15.78s WALL (   22220 calls)

     Parallel routines

     PWSCF        :     25.85s CPU     30.72s WALL


   This run was terminated on:  16: 5:25   4Feb2026            

=------------------------------------------------------------------------------=
   JOB DONE.
=------------------------------------------------------------------------------=
