
     Program PWSCF v.7.3.1 starts on  4Feb2026 at 16: 2:45 

     This program is part of the open-source Quantum ESPRESSO suite
     for quantum simulation of materials; please cite
         "P. Giannozzi et al., J. Phys.:Condens. Matter 21 395502 (2009);
         "P. Giannozzi et al., J. Phys.:Condens. Matter 29 465901 (2017);
         "P. Giannozzi et al., J. Chem. Phys. 152 154105 (2020);
          URL http://www.quantum-espresso.org", 
     in publications or presentations arising from this work. More details at
     http://www.quantum-espresso.org/quote

     Parallel version (MPI), running on   128 processors

     MPI processes distributed on     1 nodes
     241365 MiB available memory on the printing compute node when the environment starts

     Waiting for input...
     Reading input from standard input
     Message from routine read_cards :
     DEPRECATED: no units specified in ATOMIC_POSITIONS card
     Message from routine read_cards :
     ATOMIC_POSITIONS: units set to alat

     Current dimensions of program PWSCF are:
     Max number of different atomic species (ntypx) = 10
     Max number of k-points (npk) =  40000
     Max angular momentum in pseudopotentials (lmaxx) =  4

     K-points division:     npool     =       4
     R & G space division:  proc/nbgrp/npool/nimage =      32
     Subspace diagonalization in iterative solution of the eigenvalue problem:
     a serial algorithm will be used


     Parallelization info
     --------------------
     sticks:   dense  smooth     PW     G-vecs:    dense   smooth      PW
     Min         244     244     65                14289    14289    1962
     Max         245     245     66                14294    14294    1968
     Sum        7813    7813   2083               457287   457287   62871

     Using Slab Decomposition



     bravais-lattice index     =            2
     lattice parameter (alat)  =      12.2300  a.u.
     unit-cell volume          =     457.3191 (a.u.)^3
     number of atoms/cell      =            2
     number of atomic types    =            1
     number of electrons       =        28.00
     number of Kohn-Sham states=           14
     kinetic-energy cutoff     =     380.0000  Ry
     charge density cutoff     =    1520.0000  Ry
     scf convergence threshold =      1.0E-07
     mixing beta               =       0.7000
     number of iterations used =            8  plain     mixing
     Exchange-correlation=  SLA  PW   GGX  GGC
                           (   1   4   2   2   0   0   0)

     celldm(1)=  12.230000  celldm(2)=   0.000000  celldm(3)=   0.000000
     celldm(4)=   0.000000  celldm(5)=   0.000000  celldm(6)=   0.000000

     crystal axes: (cart. coord. in units of alat)
               a(1) = (  -0.500000   0.000000   0.500000 )  
               a(2) = (   0.000000   0.500000   0.500000 )  
               a(3) = (  -0.500000   0.500000   0.000000 )  

     reciprocal axes: (cart. coord. in units 2 pi/alat)
               b(1) = ( -1.000000 -1.000000  1.000000 )  
               b(2) = (  1.000000  1.000000  1.000000 )  
               b(3) = ( -1.000000  1.000000 -1.000000 )  


     PseudoPot. # 1 for Sn read from file:
     ./Sn.pw91-n-van.UPF
     MD5 check sum: a38d2a872edd1a4efd76c0a1a38f7031
     Pseudo is Ultrasoft + core correction, Zval = 14.0
     Generated by new atomic code, or converted to UPF format
     Using radial grid of  891 points,  6 beta functions with: 
                l(1) =   0
                l(2) =   0
                l(3) =   1
                l(4) =   1
                l(5) =   2
                l(6) =   2
     Q(r) pseudized with  8 coefficients,  rinner =    1.100   1.100   1.100
                                                       1.100   1.100

     atomic species   valence    mass     pseudopotential
     Sn               14.00   118.70000     Sn( 1.00)

     48 Sym. Ops., with inversion, found (24 have fractional translation)



   Cartesian axes

     site n.     atom                  positions (alat units)
         1        Sn     tau(   1) = (   0.0000000   0.0000000   0.0000000  )
         2        Sn     tau(   2) = (   0.2500000   0.2500000   0.2500000  )

     number of k points=    35
                       cart. coord. in units 2pi/alat
        k(    1) = (   0.0000000   0.0000000   0.0000000), wk =   0.0027435
        k(    2) = (  -0.1111111   0.1111111  -0.1111111), wk =   0.0219479
        k(    3) = (  -0.2222222   0.2222222  -0.2222222), wk =   0.0219479
        k(    4) = (  -0.3333333   0.3333333  -0.3333333), wk =   0.0219479
        k(    5) = (  -0.4444444   0.4444444  -0.4444444), wk =   0.0219479
        k(    6) = (   0.0000000   0.2222222   0.0000000), wk =   0.0164609
        k(    7) = (  -0.1111111   0.3333333  -0.1111111), wk =   0.0658436
        k(    8) = (  -0.2222222   0.4444444  -0.2222222), wk =   0.0658436
        k(    9) = (  -0.3333333   0.5555556  -0.3333333), wk =   0.0658436
        k(   10) = (   0.5555556  -0.3333333   0.5555556), wk =   0.0658436
        k(   11) = (   0.4444444  -0.2222222   0.4444444), wk =   0.0658436
        k(   12) = (   0.3333333  -0.1111111   0.3333333), wk =   0.0658436
        k(   13) = (   0.2222222  -0.0000000   0.2222222), wk =   0.0329218
        k(   14) = (   0.0000000   0.4444444   0.0000000), wk =   0.0164609
        k(   15) = (  -0.1111111   0.5555556  -0.1111111), wk =   0.0658436
        k(   16) = (  -0.2222222   0.6666667  -0.2222222), wk =   0.0658436
        k(   17) = (   0.6666667  -0.2222222   0.6666667), wk =   0.0658436
        k(   18) = (   0.5555556  -0.1111111   0.5555556), wk =   0.0658436
        k(   19) = (   0.4444444   0.0000000   0.4444444), wk =   0.0329218
        k(   20) = (   0.0000000   0.6666667   0.0000000), wk =   0.0164609
        k(   21) = (  -0.1111111   0.7777778  -0.1111111), wk =   0.0658436
        k(   22) = (   0.7777778  -0.1111111   0.7777778), wk =   0.0658436
        k(   23) = (   0.6666667  -0.0000000   0.6666667), wk =   0.0329218
        k(   24) = (   0.0000000   0.8888889   0.0000000), wk =   0.0164609
        k(   25) = (   0.8888889   0.0000000   0.8888889), wk =   0.0329218
        k(   26) = (  -0.2222222   0.4444444   0.0000000), wk =   0.0658436
        k(   27) = (  -0.3333333   0.5555556  -0.1111111), wk =   0.1316872
        k(   28) = (   0.5555556  -0.3333333   0.7777778), wk =   0.1316872
        k(   29) = (  -0.2222222   0.6666667   0.0000000), wk =   0.0658436
        k(   30) = (   0.6666667  -0.2222222   0.8888889), wk =   0.1316872
        k(   31) = (   0.5555556  -0.1111111   0.7777778), wk =   0.1316872
        k(   32) = (   0.4444444   0.0000000   0.6666667), wk =   0.0658436
        k(   33) = (   0.7777778  -0.1111111   1.0000000), wk =   0.0658436
        k(   34) = (   0.6666667  -0.0000000   0.8888889), wk =   0.0658436
        k(   35) = (   0.5555556  -0.1111111   1.0000000), wk =   0.0658436

     Dense  grid:   457287 G-vectors     FFT dimensions: ( 108, 108, 108)

     Estimated max dynamical RAM per process >      27.48 MB

     Estimated total dynamical RAM >       3.11 GB

     Initial potential from superposition of free atoms

     starting charge      27.9964, renormalised to      28.0000

     negative rho (up, down):  2.695E-05 0.000E+00
     Starting wfcs are   18 randomized atomic wfcs

     total cpu time spent up to now is        1.7 secs

     per-process dynamical memory:    26.3 Mb

     Self-consistent Calculation

     iteration #  1     ecut=   380.00 Ry     beta= 0.70
     Davidson diagonalization with overlap
     ethr =  1.00E-02,  avg # of iterations =  3.1

     Threshold (ethr) on eigenvalues was too large:
     Diagonalizing with lowered threshold

     Davidson diagonalization with overlap
     ethr =  7.42E-05,  avg # of iterations =  4.1

     negative rho (up, down):  1.444E-05 0.000E+00

     total cpu time spent up to now is        3.7 secs

     total energy              =    -325.51614740 Ry
     estimated scf accuracy    <       0.02479865 Ry

     iteration #  2     ecut=   380.00 Ry     beta= 0.70
     Davidson diagonalization with overlap
     ethr =  8.86E-05,  avg # of iterations =  4.9

     negative rho (up, down):  8.589E-06 0.000E+00

     total cpu time spent up to now is        4.9 secs

     total energy              =    -325.61105333 Ry
     estimated scf accuracy    <       0.04794978 Ry

     iteration #  3     ecut=   380.00 Ry     beta= 0.70
     Davidson diagonalization with overlap
     ethr =  8.86E-05,  avg # of iterations =  2.0

     total cpu time spent up to now is        5.7 secs

     total energy              =    -325.64331448 Ry
     estimated scf accuracy    <       0.01916399 Ry

     iteration #  4     ecut=   380.00 Ry     beta= 0.70
     Davidson diagonalization with overlap
     ethr =  6.84E-05,  avg # of iterations =  2.3

     total cpu time spent up to now is        6.6 secs

     total energy              =    -325.65106338 Ry
     estimated scf accuracy    <       0.00006952 Ry

     iteration #  5     ecut=   380.00 Ry     beta= 0.70
     Davidson diagonalization with overlap
     ethr =  2.48E-07,  avg # of iterations =  4.2

     total cpu time spent up to now is        7.7 secs

     total energy              =    -325.65113521 Ry
     estimated scf accuracy    <       0.00012640 Ry

     iteration #  6     ecut=   380.00 Ry     beta= 0.70
     Davidson diagonalization with overlap
     ethr =  2.48E-07,  avg # of iterations =  2.0

     total cpu time spent up to now is        8.5 secs

     total energy              =    -325.65115193 Ry
     estimated scf accuracy    <       0.00000032 Ry

     iteration #  7     ecut=   380.00 Ry     beta= 0.70
     Davidson diagonalization with overlap
     ethr =  1.13E-09,  avg # of iterations =  4.1

     total cpu time spent up to now is        9.6 secs

     total energy              =    -325.65115362 Ry
     estimated scf accuracy    <       0.00000021 Ry

     iteration #  8     ecut=   380.00 Ry     beta= 0.70
     Davidson diagonalization with overlap
     ethr =  7.63E-10,  avg # of iterations =  2.1

     total cpu time spent up to now is       10.4 secs

     End of self-consistent calculation

          k = 0.0000 0.0000 0.0000 ( 57001 PWs)   bands (ev):

   -13.7693 -13.7693 -13.7693 -13.7089 -13.7089 -13.3925 -13.3925 -13.3925
   -13.3834 -13.3834  -2.7359   7.2954   8.0267   8.0267

          k =-0.1111 0.1111-0.1111 ( 57224 PWs)   bands (ev):

   -13.7786 -13.7786 -13.7663 -13.6960 -13.6960 -13.4123 -13.4123 -13.3964
   -13.3658 -13.3658  -2.6155   5.9699   7.7901   7.7901

          k =-0.2222 0.2222-0.2222 ( 57218 PWs)   bands (ev):

   -13.7926 -13.7926 -13.7585 -13.6735 -13.6735 -13.4334 -13.4334 -13.4065
   -13.3497 -13.3497  -2.2641   4.2825   7.3658   7.3658

          k =-0.3333 0.3333-0.3333 ( 57203 PWs)   bands (ev):

   -13.8019 -13.8019 -13.7492 -13.6560 -13.6560 -13.4475 -13.4475 -13.4182
   -13.3398 -13.3398  -1.7285   2.7877   7.0193   7.0193

          k =-0.4444 0.4444-0.4444 ( 57248 PWs)   bands (ev):

   -13.8058 -13.8058 -13.7429 -13.6479 -13.6479 -13.4533 -13.4533 -13.4262
   -13.3355 -13.3355  -1.1973   1.7619   6.8341   6.8341

          k = 0.0000 0.2222 0.0000 ( 57174 PWs)   bands (ev):

   -13.7765 -13.7764 -13.7764 -13.6988 -13.6825 -13.4393 -13.3930 -13.3824
   -13.3824 -13.3597  -2.5748   5.8734   7.4120   7.4120

          k =-0.1111 0.3333-0.1111 ( 57174 PWs)   bands (ev):

   -13.7948 -13.7872 -13.7655 -13.6818 -13.6574 -13.4669 -13.4142 -13.3867
   -13.3634 -13.3458  -2.2979   4.6165   6.9420   6.9733

          k =-0.2222 0.4444-0.2222 ( 57176 PWs)   bands (ev):

   -13.8103 -13.7985 -13.7480 -13.6613 -13.6373 -13.4836 -13.4355 -13.4065
   -13.3472 -13.3301  -1.8139   3.1731   6.4338   6.6683

          k =-0.3333 0.5556-0.3333 ( 57247 PWs)   bands (ev):

   -13.8192 -13.8063 -13.7310 -13.6446 -13.6317 -13.4829 -13.4534 -13.4283
   -13.3358 -13.3209  -1.2386   1.9971   6.0479   6.5596

          k = 0.5556-0.3333 0.5556 ( 57243 PWs)   bands (ev):

   -13.8203 -13.8106 -13.7228 -13.6396 -13.6339 -13.4672 -13.4657 -13.4429
   -13.3291 -13.3207  -0.9999   1.6054   5.8520   6.6587

          k = 0.4444-0.2222 0.4444 ( 57206 PWs)   bands (ev):

   -13.8138 -13.8106 -13.7292 -13.6532 -13.6335 -13.4720 -13.4494 -13.4357
   -13.3299 -13.3279  -1.4278   2.3425   5.8799   6.9468

          k = 0.3333-0.1111 0.3333 ( 57196 PWs)   bands (ev):

   -13.8047 -13.8005 -13.7460 -13.6690 -13.6483 -13.4618 -13.4415 -13.4067
   -13.3481 -13.3336  -1.9972   3.6368   6.1703   7.3653

          k = 0.2222-0.0000 0.2222 ( 57213 PWs)   bands (ev):

   -13.7924 -13.7841 -13.7622 -13.6865 -13.6735 -13.4394 -13.4255 -13.3832
   -13.3719 -13.3466  -2.4171   5.0154   6.8191   7.7569

          k = 0.0000 0.4444 0.0000 ( 57190 PWs)   bands (ev):

   -13.7929 -13.7929 -13.7760 -13.6700 -13.6271 -13.5064 -13.4207 -13.3584
   -13.3582 -13.3582  -2.0954   4.1807   6.5197   6.5197

          k =-0.1111 0.5556-0.1111 ( 57177 PWs)   bands (ev):

   -13.8113 -13.8027 -13.7553 -13.6487 -13.5994 -13.5358 -13.4428 -13.3866
   -13.3431 -13.3309  -1.6729   3.1644   5.9556   6.2024

          k =-0.2222 0.6667-0.2222 ( 57197 PWs)   bands (ev):

   -13.8291 -13.8111 -13.7243 -13.6265 -13.5890 -13.5436 -13.4673 -13.4217
   -13.3299 -13.3100  -1.0984   2.0955   5.3296   6.0931

          k = 0.6667-0.2222 0.6667 ( 57200 PWs)   bands (ev):

   -13.8380 -13.8167 -13.7007 -13.6078 -13.6018 -13.5258 -13.4899 -13.4483
   -13.3212 -13.3003  -0.6696   1.4585   4.9198   6.2085

          k = 0.5556-0.1111 0.5556 ( 57206 PWs)   bands (ev):

   -13.8350 -13.8184 -13.6970 -13.6303 -13.6021 -13.5007 -13.4885 -13.4565
   -13.3184 -13.3050  -0.9438   1.8517   4.8331   6.5277

          k = 0.4444 0.0000 0.4444 ( 57239 PWs)   bands (ev):

   -13.8206 -13.8145 -13.7170 -13.6549 -13.6193 -13.4883 -13.4554 -13.4393
   -13.3238 -13.3225  -1.5237   2.7822   5.1987   6.9772

          k = 0.0000 0.6667 0.0000 ( 57190 PWs)   bands (ev):

   -13.8100 -13.8100 -13.7550 -13.6261 -13.5807 -13.5604 -13.4634 -13.3832
   -13.3323 -13.3323  -1.3106   2.5577   5.8494   5.8494

          k =-0.1111 0.7778-0.1111 ( 57160 PWs)   bands (ev):

   -13.8249 -13.8165 -13.7248 -13.6073 -13.6006 -13.5342 -13.4896 -13.4169
   -13.3221 -13.3134  -0.7637   1.7324   5.3238   5.7006

          k = 0.7778-0.1111 0.7778 ( 57235 PWs)   bands (ev):

   -13.8408 -13.8208 -13.6913 -13.6013 -13.5768 -13.5375 -13.5165 -13.4523
   -13.3156 -13.2959  -0.2153   1.0663   4.6980   5.7825

          k = 0.6667-0.0000 0.6667 ( 57225 PWs)   bands (ev):

   -13.8454 -13.8218 -13.6838 -13.5819 -13.5738 -13.5520 -13.5242 -13.4604
   -13.3142 -13.2918  -0.3727   1.2487   4.4464   6.0805

          k = 0.0000 0.8889 0.0000 ( 57174 PWs)   bands (ev):

   -13.8203 -13.8203 -13.7127 -13.6524 -13.5726 -13.5161 -13.4918 -13.4300
   -13.3162 -13.3162  -0.2450   1.0623   5.4993   5.4993

          k = 0.8889 0.0000 0.8889 ( 57226 PWs)   bands (ev):

   -13.8301 -13.8218 -13.6839 -13.6625 -13.5477 -13.5421 -13.4802 -13.4598
   -13.3138 -13.3058   0.3101   0.4778   5.1098   5.5283

          k =-0.2222 0.4444 0.0000 ( 57159 PWs)   bands (ev):

   -13.8057 -13.8018 -13.7510 -13.6655 -13.6304 -13.4960 -13.4309 -13.3973
   -13.3473 -13.3337  -1.9496   3.6939   5.9720   6.8683

          k =-0.3333 0.5556-0.1111 ( 57202 PWs)   bands (ev):

   -13.8215 -13.8128 -13.7243 -13.6464 -13.6099 -13.5127 -13.4503 -13.4294
   -13.3285 -13.3190  -1.4153   2.5662   5.3995   6.5211

          k = 0.5556-0.3333 0.7778 ( 57192 PWs)   bands (ev):

   -13.8323 -13.8168 -13.7043 -13.6281 -13.6072 -13.5097 -13.4741 -13.4504
   -13.3218 -13.3070  -0.8728   1.6627   5.1635   6.2729

          k =-0.2222 0.6667 0.0000 ( 57141 PWs)   bands (ev):

   -13.8193 -13.8185 -13.7299 -13.6263 -13.5711 -13.5652 -13.4659 -13.4137
   -13.3221 -13.3208  -1.1911   2.3448   5.3793   5.9145

          k = 0.6667-0.2222 0.8889 ( 57238 PWs)   bands (ev):

   -13.8364 -13.8238 -13.6942 -13.6037 -13.5767 -13.5562 -13.4932 -13.4507
   -13.3139 -13.3013  -0.6024   1.5202   4.8760   5.6917

          k = 0.5556-0.1111 0.7778 ( 57242 PWs)   bands (ev):

   -13.8430 -13.8256 -13.6776 -13.5957 -13.5696 -13.5549 -13.5115 -13.4661
   -13.3111 -13.2942  -0.3705   1.2365   4.6020   5.7742

          k = 0.4444 0.0000 0.6667 ( 57239 PWs)   bands (ev):

   -13.8361 -13.8231 -13.6912 -13.6231 -13.5819 -13.5376 -13.4822 -13.4590
   -13.3138 -13.3032  -0.8553   1.8356   4.7298   6.1113

          k = 0.7778-0.1111 1.0000 ( 57245 PWs)   bands (ev):

   -13.8290 -13.8282 -13.6898 -13.6327 -13.5741 -13.5177 -13.5086 -13.4527
   -13.3083 -13.3076  -0.1781   1.0283   5.1470   5.3203

          k = 0.6667-0.0000 0.8889 ( 57204 PWs)   bands (ev):

   -13.8416 -13.8291 -13.6651 -13.6157 -13.5582 -13.5393 -13.5216 -13.4759
   -13.3069 -13.2946   0.1604   0.6926   4.6850   5.3886

          k = 0.5556-0.1111 1.0000 ( 57216 PWs)   bands (ev):

   -13.8411 -13.8348 -13.6537 -13.5994 -13.5771 -13.5317 -13.5284 -13.4854
   -13.3015 -13.2953  -0.0151   0.9028   4.7065   5.1918

     highest occupied level (ev):     8.0267

!    total energy              =    -325.65115366 Ry
     estimated scf accuracy    <       0.00000003 Ry

     The total energy is the sum of the following terms:
     one-electron contribution =    -150.92429891 Ry
     hartree contribution      =      93.15690945 Ry
     xc contribution           =     -95.22433385 Ry
     ewald contribution        =    -172.65943036 Ry

     convergence has been achieved in   8 iterations

     Writing all to output data dir ./alpha-sn-scf/alphatin.save/ :
     XML data file, charge density, pseudopotentials, collected wavefunctions

     init_run     :      1.36s CPU      1.45s WALL (       1 calls)
     electrons    :      8.52s CPU      8.85s WALL (       1 calls)

     Called by init_run:
     wfcinit      :      0.33s CPU      0.35s WALL (       1 calls)
     potinit      :      0.06s CPU      0.08s WALL (       1 calls)
     hinit0       :      0.50s CPU      0.52s WALL (       1 calls)

     Called by electrons:
     c_bands      :      6.42s CPU      6.52s WALL (       9 calls)
     sum_band     :      1.41s CPU      1.43s WALL (       9 calls)
     v_of_rho     :      0.44s CPU      0.47s WALL (       9 calls)
     newd         :      0.19s CPU      0.22s WALL (       9 calls)
     mix_rho      :      0.06s CPU      0.07s WALL (       9 calls)

     Called by c_bands:
     init_us_2    :      0.15s CPU      0.16s WALL (     171 calls)
     cegterg      :      6.03s CPU      6.08s WALL (      81 calls)

     Called by *egterg:
     cdiaghg      :      0.13s CPU      0.14s WALL (     361 calls)
     h_psi        :      5.46s CPU      5.51s WALL (     379 calls)
     s_psi        :      0.11s CPU      0.11s WALL (     379 calls)
     g_psi        :      0.01s CPU      0.02s WALL (     289 calls)

     Called by h_psi:
     h_psi:calbec :      0.26s CPU      0.26s WALL (     379 calls)
     vloc_psi     :      5.05s CPU      5.09s WALL (     379 calls)
     add_vuspsi   :      0.12s CPU      0.12s WALL (     379 calls)

     General routines
     calbec       :      0.29s CPU      0.30s WALL (     460 calls)
     fft          :      0.68s CPU      0.73s WALL (     100 calls)
     ffts         :      0.03s CPU      0.03s WALL (       9 calls)
     fftw         :      5.23s CPU      5.27s WALL (    7424 calls)

     Parallel routines

     PWSCF        :     10.27s CPU     11.88s WALL


   This run was terminated on:  16: 2:56   4Feb2026            

=------------------------------------------------------------------------------=
   JOB DONE.
=------------------------------------------------------------------------------=
