
     Program PWSCF v.7.3.1 starts on  4Feb2026 at 16: 1:58 

     This program is part of the open-source Quantum ESPRESSO suite
     for quantum simulation of materials; please cite
         "P. Giannozzi et al., J. Phys.:Condens. Matter 21 395502 (2009);
         "P. Giannozzi et al., J. Phys.:Condens. Matter 29 465901 (2017);
         "P. Giannozzi et al., J. Chem. Phys. 152 154105 (2020);
          URL http://www.quantum-espresso.org", 
     in publications or presentations arising from this work. More details at
     http://www.quantum-espresso.org/quote

     Parallel version (MPI), running on   128 processors

     MPI processes distributed on     1 nodes
     241711 MiB available memory on the printing compute node when the environment starts

     Waiting for input...
     Reading input from standard input
     Message from routine read_cards :
     DEPRECATED: no units specified in ATOMIC_POSITIONS card
     Message from routine read_cards :
     ATOMIC_POSITIONS: units set to alat

     Current dimensions of program PWSCF are:
     Max number of different atomic species (ntypx) = 10
     Max number of k-points (npk) =  40000
     Max angular momentum in pseudopotentials (lmaxx) =  4

     K-points division:     npool     =       4
     R & G space division:  proc/nbgrp/npool/nimage =      32
     Subspace diagonalization in iterative solution of the eigenvalue problem:
     a serial algorithm will be used


     Parallelization info
     --------------------
     sticks:   dense  smooth     PW     G-vecs:    dense   smooth      PW
     Min         244     244     64                14289    14289    1952
     Max         245     245     65                14294    14294    1958
     Sum        7813    7813   2077               457287   457287   62583

     Using Slab Decomposition



     bravais-lattice index     =            2
     lattice parameter (alat)  =      12.2300  a.u.
     unit-cell volume          =     457.3191 (a.u.)^3
     number of atoms/cell      =            2
     number of atomic types    =            1
     number of electrons       =        28.00
     number of Kohn-Sham states=           14
     kinetic-energy cutoff     =     380.0000  Ry
     charge density cutoff     =    1520.0000  Ry
     scf convergence threshold =      1.0E-07
     mixing beta               =       0.7000
     number of iterations used =            8  plain     mixing
     Exchange-correlation=  SLA  PW   GGX  GGC
                           (   1   4   2   2   0   0   0)

     celldm(1)=  12.230000  celldm(2)=   0.000000  celldm(3)=   0.000000
     celldm(4)=   0.000000  celldm(5)=   0.000000  celldm(6)=   0.000000

     crystal axes: (cart. coord. in units of alat)
               a(1) = (  -0.500000   0.000000   0.500000 )  
               a(2) = (   0.000000   0.500000   0.500000 )  
               a(3) = (  -0.500000   0.500000   0.000000 )  

     reciprocal axes: (cart. coord. in units 2 pi/alat)
               b(1) = ( -1.000000 -1.000000  1.000000 )  
               b(2) = (  1.000000  1.000000  1.000000 )  
               b(3) = ( -1.000000  1.000000 -1.000000 )  


     PseudoPot. # 1 for Sn read from file:
     ./Sn.pw91-n-van.UPF
     MD5 check sum: a38d2a872edd1a4efd76c0a1a38f7031
     Pseudo is Ultrasoft + core correction, Zval = 14.0
     Generated by new atomic code, or converted to UPF format
     Using radial grid of  891 points,  6 beta functions with: 
                l(1) =   0
                l(2) =   0
                l(3) =   1
                l(4) =   1
                l(5) =   2
                l(6) =   2
     Q(r) pseudized with  8 coefficients,  rinner =    1.100   1.100   1.100
                                                       1.100   1.100

     atomic species   valence    mass     pseudopotential
     Sn               14.00   118.70000     Sn( 1.00)

     48 Sym. Ops., with inversion, found (24 have fractional translation)



   Cartesian axes

     site n.     atom                  positions (alat units)
         1        Sn     tau(   1) = (   0.0000000   0.0000000   0.0000000  )
         2        Sn     tau(   2) = (   0.2500000   0.2500000   0.2500000  )

     number of k points=    10
                       cart. coord. in units 2pi/alat
        k(    1) = (   0.0000000   0.0000000   0.0000000), wk =   0.0160000
        k(    2) = (  -0.2000000   0.2000000  -0.2000000), wk =   0.1280000
        k(    3) = (  -0.4000000   0.4000000  -0.4000000), wk =   0.1280000
        k(    4) = (   0.0000000   0.4000000   0.0000000), wk =   0.0960000
        k(    5) = (  -0.2000000   0.6000000  -0.2000000), wk =   0.3840000
        k(    6) = (   0.6000000  -0.2000000   0.6000000), wk =   0.3840000
        k(    7) = (   0.4000000   0.0000000   0.4000000), wk =   0.1920000
        k(    8) = (   0.0000000   0.8000000   0.0000000), wk =   0.0960000
        k(    9) = (   0.8000000   0.0000000   0.8000000), wk =   0.1920000
        k(   10) = (   0.6000000  -0.2000000   1.0000000), wk =   0.3840000

     Dense  grid:   457287 G-vectors     FFT dimensions: ( 108, 108, 108)

     Estimated max dynamical RAM per process >      25.19 MB

     Estimated total dynamical RAM >       2.82 GB

     Initial potential from superposition of free atoms

     starting charge      27.9964, renormalised to      28.0000

     negative rho (up, down):  2.695E-05 0.000E+00
     Starting wfcs are   18 randomized atomic wfcs

     total cpu time spent up to now is        1.5 secs

     per-process dynamical memory:    26.6 Mb

     Self-consistent Calculation

     iteration #  1     ecut=   380.00 Ry     beta= 0.70
     Davidson diagonalization with overlap
     ethr =  1.00E-02,  avg # of iterations =  2.9

     Threshold (ethr) on eigenvalues was too large:
     Diagonalizing with lowered threshold

     Davidson diagonalization with overlap
     ethr =  6.72E-05,  avg # of iterations =  3.4

     negative rho (up, down):  1.261E-05 0.000E+00

     total cpu time spent up to now is        2.2 secs

     total energy              =    -325.49666308 Ry
     estimated scf accuracy    <       0.02235638 Ry

     iteration #  2     ecut=   380.00 Ry     beta= 0.70
     Davidson diagonalization with overlap
     ethr =  7.98E-05,  avg # of iterations =  5.5

     negative rho (up, down):  7.756E-06 0.000E+00

     total cpu time spent up to now is        2.8 secs

     total energy              =    -325.60677466 Ry
     estimated scf accuracy    <       0.05029154 Ry

     iteration #  3     ecut=   380.00 Ry     beta= 0.70
     Davidson diagonalization with overlap
     ethr =  7.98E-05,  avg # of iterations =  1.9

     total cpu time spent up to now is        3.1 secs

     total energy              =    -325.63951698 Ry
     estimated scf accuracy    <       0.02181207 Ry

     iteration #  4     ecut=   380.00 Ry     beta= 0.70
     Davidson diagonalization with overlap
     ethr =  7.79E-05,  avg # of iterations =  2.2

     total cpu time spent up to now is        3.5 secs

     total energy              =    -325.64537707 Ry
     estimated scf accuracy    <       0.00011213 Ry

     iteration #  5     ecut=   380.00 Ry     beta= 0.70
     Davidson diagonalization with overlap
     ethr =  4.00E-07,  avg # of iterations =  4.0

     total cpu time spent up to now is        3.9 secs

     total energy              =    -325.64542184 Ry
     estimated scf accuracy    <       0.00013504 Ry

     iteration #  6     ecut=   380.00 Ry     beta= 0.70
     Davidson diagonalization with overlap
     ethr =  4.00E-07,  avg # of iterations =  2.0

     total cpu time spent up to now is        4.3 secs

     total energy              =    -325.64544550 Ry
     estimated scf accuracy    <       0.00000029 Ry

     iteration #  7     ecut=   380.00 Ry     beta= 0.70
     Davidson diagonalization with overlap
     ethr =  1.02E-09,  avg # of iterations =  4.6

     total cpu time spent up to now is        4.7 secs

     total energy              =    -325.64544661 Ry
     estimated scf accuracy    <       0.00000018 Ry

     iteration #  8     ecut=   380.00 Ry     beta= 0.70
     Davidson diagonalization with overlap
     ethr =  6.35E-10,  avg # of iterations =  2.0

     total cpu time spent up to now is        5.1 secs

     End of self-consistent calculation

          k = 0.0000 0.0000 0.0000 ( 57001 PWs)   bands (ev):

   -13.7463 -13.7463 -13.7463 -13.6864 -13.6864 -13.3697 -13.3697 -13.3697
   -13.3608 -13.3608  -2.7201   7.3138   8.0429   8.0429

          k =-0.2000 0.2000-0.2000 ( 57215 PWs)   bands (ev):

   -13.7671 -13.7671 -13.7372 -13.6553 -13.6553 -13.4070 -13.4070 -13.3813
   -13.3296 -13.3296  -2.3357   4.6279   7.4642   7.4642

          k =-0.4000 0.4000-0.4000 ( 57260 PWs)   bands (ev):

   -13.7818 -13.7818 -13.7218 -13.6276 -13.6276 -13.4292 -13.4292 -13.4009
   -13.3138 -13.3138  -1.3669   2.1023   6.9011   6.9011

          k = 0.0000 0.4000 0.0000 ( 57178 PWs)   bands (ev):

   -13.7663 -13.7663 -13.7548 -13.6547 -13.6168 -13.4694 -13.3912 -13.3407
   -13.3407 -13.3337  -2.2005   4.5328   6.6999   6.6999

          k =-0.2000 0.6000-0.2000 ( 57168 PWs)   bands (ev):

   -13.7997 -13.7838 -13.7131 -13.6167 -13.5769 -13.5092 -13.4317 -13.3875
   -13.3133 -13.2945  -1.3632   2.5410   5.6448   6.2153

          k = 0.6000-0.2000 0.6000 ( 57211 PWs)   bands (ev):

   -13.8122 -13.7938 -13.6775 -13.5988 -13.5869 -13.4765 -13.4685 -13.4300
   -13.2979 -13.2812  -0.7721   1.5771   5.0072   6.4237

          k = 0.4000 0.0000 0.4000 ( 57213 PWs)   bands (ev):

   -13.7898 -13.7884 -13.7056 -13.6391 -13.6073 -13.4567 -13.4277 -13.4011
   -13.3109 -13.3031  -1.7234   3.1934   5.4908   7.1753

          k = 0.0000 0.8000 0.0000 ( 57178 PWs)   bands (ev):

   -13.7942 -13.7942 -13.7093 -13.6019 -13.5722 -13.4962 -13.4716 -13.3862
   -13.2980 -13.2980  -0.6868   1.6578   5.6114   5.6114

          k = 0.8000 0.0000 0.8000 ( 57291 PWs)   bands (ev):

   -13.8175 -13.7991 -13.6603 -13.6007 -13.5327 -13.5146 -13.4942 -13.4375
   -13.2907 -13.2728   0.1480   0.7100   4.7089   5.7025

          k = 0.6000-0.2000 1.0000 ( 57200 PWs)   bands (ev):

   -13.8152 -13.8072 -13.6533 -13.5751 -13.5572 -13.5273 -13.4815 -13.4445
   -13.2837 -13.2763  -0.4072   1.3572   4.7534   5.5096

     highest occupied level (ev):     8.0429

!    total energy              =    -325.64544667 Ry
     estimated scf accuracy    <          5.3E-09 Ry

     The total energy is the sum of the following terms:
     one-electron contribution =    -150.95922324 Ry
     hartree contribution      =      93.20190792 Ry
     xc contribution           =     -95.22870099 Ry
     ewald contribution        =    -172.65943036 Ry

     convergence has been achieved in   8 iterations

     Writing all to output data dir ./alpha-sn-scf/alphatin.save/ :
     XML data file, charge density, pseudopotentials, collected wavefunctions

     init_run     :      1.11s CPU      1.21s WALL (       1 calls)
     electrons    :      3.43s CPU      3.66s WALL (       1 calls)

     Called by init_run:
     wfcinit      :      0.12s CPU      0.13s WALL (       1 calls)
     potinit      :      0.05s CPU      0.08s WALL (       1 calls)
     hinit0       :      0.49s CPU      0.52s WALL (       1 calls)

     Called by electrons:
     c_bands      :      2.09s CPU      2.14s WALL (       9 calls)
     sum_band     :      0.69s CPU      0.71s WALL (       9 calls)
     v_of_rho     :      0.40s CPU      0.47s WALL (       9 calls)
     newd         :      0.20s CPU      0.22s WALL (       9 calls)
     mix_rho      :      0.06s CPU      0.07s WALL (       9 calls)

     Called by c_bands:
     init_us_2    :      0.05s CPU      0.06s WALL (      57 calls)
     cegterg      :      1.97s CPU      2.00s WALL (      27 calls)

     Called by *egterg:
     cdiaghg      :      0.04s CPU      0.04s WALL (     119 calls)
     h_psi        :      1.80s CPU      1.83s WALL (     125 calls)
     s_psi        :      0.03s CPU      0.04s WALL (     125 calls)
     g_psi        :      0.00s CPU      0.00s WALL (      95 calls)

     Called by h_psi:
     h_psi:calbec :      0.08s CPU      0.09s WALL (     125 calls)
     vloc_psi     :      1.66s CPU      1.69s WALL (     125 calls)
     add_vuspsi   :      0.04s CPU      0.04s WALL (     125 calls)

     General routines
     calbec       :      0.10s CPU      0.10s WALL (     152 calls)
     fft          :      0.66s CPU      0.73s WALL (     100 calls)
     ffts         :      0.03s CPU      0.03s WALL (       9 calls)
     fftw         :      1.72s CPU      1.75s WALL (    2460 calls)

     Parallel routines

     PWSCF        :      4.83s CPU      5.55s WALL


   This run was terminated on:  16: 2: 3   4Feb2026            

=------------------------------------------------------------------------------=
   JOB DONE.
=------------------------------------------------------------------------------=
