
     Program PWSCF v.7.3.1 starts on  4Feb2026 at 16: 3:18 

     This program is part of the open-source Quantum ESPRESSO suite
     for quantum simulation of materials; please cite
         "P. Giannozzi et al., J. Phys.:Condens. Matter 21 395502 (2009);
         "P. Giannozzi et al., J. Phys.:Condens. Matter 29 465901 (2017);
         "P. Giannozzi et al., J. Chem. Phys. 152 154105 (2020);
          URL http://www.quantum-espresso.org", 
     in publications or presentations arising from this work. More details at
     http://www.quantum-espresso.org/quote

     Parallel version (MPI), running on   128 processors

     MPI processes distributed on     1 nodes
     241114 MiB available memory on the printing compute node when the environment starts

     Waiting for input...
     Reading input from standard input
     Message from routine read_cards :
     DEPRECATED: no units specified in ATOMIC_POSITIONS card
     Message from routine read_cards :
     ATOMIC_POSITIONS: units set to alat

     Current dimensions of program PWSCF are:
     Max number of different atomic species (ntypx) = 10
     Max number of k-points (npk) =  40000
     Max angular momentum in pseudopotentials (lmaxx) =  4

     K-points division:     npool     =       4
     R & G space division:  proc/nbgrp/npool/nimage =      32
     Subspace diagonalization in iterative solution of the eigenvalue problem:
     a serial algorithm will be used


     Parallelization info
     --------------------
     sticks:   dense  smooth     PW     G-vecs:    dense   smooth      PW
     Min         244     244     65                14289    14289    1977
     Max         245     245     66                14294    14294    1978
     Sum        7813    7813   2095               457287   457287   63279

     Using Slab Decomposition



     bravais-lattice index     =            2
     lattice parameter (alat)  =      12.2300  a.u.
     unit-cell volume          =     457.3191 (a.u.)^3
     number of atoms/cell      =            2
     number of atomic types    =            1
     number of electrons       =        28.00
     number of Kohn-Sham states=           14
     kinetic-energy cutoff     =     380.0000  Ry
     charge density cutoff     =    1520.0000  Ry
     scf convergence threshold =      1.0E-07
     mixing beta               =       0.7000
     number of iterations used =            8  plain     mixing
     Exchange-correlation=  SLA  PW   GGX  GGC
                           (   1   4   2   2   0   0   0)

     celldm(1)=  12.230000  celldm(2)=   0.000000  celldm(3)=   0.000000
     celldm(4)=   0.000000  celldm(5)=   0.000000  celldm(6)=   0.000000

     crystal axes: (cart. coord. in units of alat)
               a(1) = (  -0.500000   0.000000   0.500000 )  
               a(2) = (   0.000000   0.500000   0.500000 )  
               a(3) = (  -0.500000   0.500000   0.000000 )  

     reciprocal axes: (cart. coord. in units 2 pi/alat)
               b(1) = ( -1.000000 -1.000000  1.000000 )  
               b(2) = (  1.000000  1.000000  1.000000 )  
               b(3) = ( -1.000000  1.000000 -1.000000 )  


     PseudoPot. # 1 for Sn read from file:
     ./Sn.pw91-n-van.UPF
     MD5 check sum: a38d2a872edd1a4efd76c0a1a38f7031
     Pseudo is Ultrasoft + core correction, Zval = 14.0
     Generated by new atomic code, or converted to UPF format
     Using radial grid of  891 points,  6 beta functions with: 
                l(1) =   0
                l(2) =   0
                l(3) =   1
                l(4) =   1
                l(5) =   2
                l(6) =   2
     Q(r) pseudized with  8 coefficients,  rinner =    1.100   1.100   1.100
                                                       1.100   1.100

     atomic species   valence    mass     pseudopotential
     Sn               14.00   118.70000     Sn( 1.00)

     48 Sym. Ops., with inversion, found (24 have fractional translation)



   Cartesian axes

     site n.     atom                  positions (alat units)
         1        Sn     tau(   1) = (   0.0000000   0.0000000   0.0000000  )
         2        Sn     tau(   2) = (   0.2500000   0.2500000   0.2500000  )

     number of k points=    56
                       cart. coord. in units 2pi/alat
        k(    1) = (   0.0000000   0.0000000   0.0000000), wk =   0.0015026
        k(    2) = (  -0.0909091   0.0909091  -0.0909091), wk =   0.0120210
        k(    3) = (  -0.1818182   0.1818182  -0.1818182), wk =   0.0120210
        k(    4) = (  -0.2727273   0.2727273  -0.2727273), wk =   0.0120210
        k(    5) = (  -0.3636364   0.3636364  -0.3636364), wk =   0.0120210
        k(    6) = (  -0.4545455   0.4545455  -0.4545455), wk =   0.0120210
        k(    7) = (   0.0000000   0.1818182   0.0000000), wk =   0.0090158
        k(    8) = (  -0.0909091   0.2727273  -0.0909091), wk =   0.0360631
        k(    9) = (  -0.1818182   0.3636364  -0.1818182), wk =   0.0360631
        k(   10) = (  -0.2727273   0.4545455  -0.2727273), wk =   0.0360631
        k(   11) = (  -0.3636364   0.5454545  -0.3636364), wk =   0.0360631
        k(   12) = (   0.5454545  -0.3636364   0.5454545), wk =   0.0360631
        k(   13) = (   0.4545455  -0.2727273   0.4545455), wk =   0.0360631
        k(   14) = (   0.3636364  -0.1818182   0.3636364), wk =   0.0360631
        k(   15) = (   0.2727273  -0.0909091   0.2727273), wk =   0.0360631
        k(   16) = (   0.1818182  -0.0000000   0.1818182), wk =   0.0180316
        k(   17) = (   0.0000000   0.3636364   0.0000000), wk =   0.0090158
        k(   18) = (  -0.0909091   0.4545455  -0.0909091), wk =   0.0360631
        k(   19) = (  -0.1818182   0.5454545  -0.1818182), wk =   0.0360631
        k(   20) = (  -0.2727273   0.6363636  -0.2727273), wk =   0.0360631
        k(   21) = (   0.6363636  -0.2727273   0.6363636), wk =   0.0360631
        k(   22) = (   0.5454545  -0.1818182   0.5454545), wk =   0.0360631
        k(   23) = (   0.4545455  -0.0909091   0.4545455), wk =   0.0360631
        k(   24) = (   0.3636364   0.0000000   0.3636364), wk =   0.0180316
        k(   25) = (   0.0000000   0.5454545   0.0000000), wk =   0.0090158
        k(   26) = (  -0.0909091   0.6363636  -0.0909091), wk =   0.0360631
        k(   27) = (  -0.1818182   0.7272727  -0.1818182), wk =   0.0360631
        k(   28) = (   0.7272727  -0.1818182   0.7272727), wk =   0.0360631
        k(   29) = (   0.6363636  -0.0909091   0.6363636), wk =   0.0360631
        k(   30) = (   0.5454545   0.0000000   0.5454545), wk =   0.0180316
        k(   31) = (   0.0000000   0.7272727   0.0000000), wk =   0.0090158
        k(   32) = (  -0.0909091   0.8181818  -0.0909091), wk =   0.0360631
        k(   33) = (   0.8181818  -0.0909091   0.8181818), wk =   0.0360631
        k(   34) = (   0.7272727   0.0000000   0.7272727), wk =   0.0180316
        k(   35) = (   0.0000000   0.9090909   0.0000000), wk =   0.0090158
        k(   36) = (   0.9090909  -0.0000000   0.9090909), wk =   0.0180316
        k(   37) = (  -0.1818182   0.3636364   0.0000000), wk =   0.0360631
        k(   38) = (  -0.2727273   0.4545455  -0.0909091), wk =   0.0721262
        k(   39) = (  -0.3636364   0.5454545  -0.1818182), wk =   0.0721262
        k(   40) = (   0.5454545  -0.3636364   0.7272727), wk =   0.0721262
        k(   41) = (  -0.1818182   0.5454545   0.0000000), wk =   0.0360631
        k(   42) = (  -0.2727273   0.6363636  -0.0909091), wk =   0.0721262
        k(   43) = (   0.6363636  -0.2727273   0.8181818), wk =   0.0721262
        k(   44) = (   0.5454545  -0.1818182   0.7272727), wk =   0.0721262
        k(   45) = (   0.4545455  -0.0909091   0.6363636), wk =   0.0721262
        k(   46) = (   0.3636364   0.0000000   0.5454545), wk =   0.0360631
        k(   47) = (  -0.1818182   0.7272727   0.0000000), wk =   0.0360631
        k(   48) = (   0.7272727  -0.1818182   0.9090909), wk =   0.0721262
        k(   49) = (   0.6363636  -0.0909091   0.8181818), wk =   0.0721262
        k(   50) = (   0.5454545   0.0000000   0.7272727), wk =   0.0360631
        k(   51) = (   0.8181818  -0.0909091   1.0000000), wk =   0.0360631
        k(   52) = (   0.7272727   0.0000000   0.9090909), wk =   0.0360631
        k(   53) = (   0.6363636  -0.2727273   1.0000000), wk =   0.0360631
        k(   54) = (   0.5454545  -0.1818182   0.9090909), wk =   0.0721262
        k(   55) = (   0.6363636  -0.0909091   1.0000000), wk =   0.0360631
        k(   56) = (   0.5454545   0.0000000   0.9090909), wk =   0.0360631

     Dense  grid:   457287 G-vectors     FFT dimensions: ( 108, 108, 108)

     Estimated max dynamical RAM per process >      29.39 MB

     Estimated total dynamical RAM >       3.35 GB

     Initial potential from superposition of free atoms

     starting charge      27.9964, renormalised to      28.0000

     negative rho (up, down):  2.695E-05 0.000E+00
     Starting wfcs are   18 randomized atomic wfcs

     total cpu time spent up to now is        1.9 secs

     per-process dynamical memory:    26.6 Mb

     Self-consistent Calculation

     iteration #  1     ecut=   380.00 Ry     beta= 0.70
     Davidson diagonalization with overlap
     ethr =  1.00E-02,  avg # of iterations =  3.0

     Threshold (ethr) on eigenvalues was too large:
     Diagonalizing with lowered threshold

     Davidson diagonalization with overlap
     ethr =  7.36E-05,  avg # of iterations =  4.0

     negative rho (up, down):  1.434E-05 0.000E+00

     total cpu time spent up to now is        4.7 secs

     total energy              =    -325.51563701 Ry
     estimated scf accuracy    <       0.02483153 Ry

     iteration #  2     ecut=   380.00 Ry     beta= 0.70
     Davidson diagonalization with overlap
     ethr =  8.87E-05,  avg # of iterations =  5.1

     negative rho (up, down):  8.572E-06 0.000E+00

     total cpu time spent up to now is        6.6 secs

     total energy              =    -325.61224361 Ry
     estimated scf accuracy    <       0.04868662 Ry

     iteration #  3     ecut=   380.00 Ry     beta= 0.70
     Davidson diagonalization with overlap
     ethr =  8.87E-05,  avg # of iterations =  1.9

     total cpu time spent up to now is        7.8 secs

     total energy              =    -325.64446906 Ry
     estimated scf accuracy    <       0.01953026 Ry

     iteration #  4     ecut=   380.00 Ry     beta= 0.70
     Davidson diagonalization with overlap
     ethr =  6.98E-05,  avg # of iterations =  2.1

     total cpu time spent up to now is        9.0 secs

     total energy              =    -325.65040287 Ry
     estimated scf accuracy    <       0.00007486 Ry

     iteration #  5     ecut=   380.00 Ry     beta= 0.70
     Davidson diagonalization with overlap
     ethr =  2.67E-07,  avg # of iterations =  4.2

     total cpu time spent up to now is       10.6 secs

     total energy              =    -325.65135861 Ry
     estimated scf accuracy    <       0.00009124 Ry

     iteration #  6     ecut=   380.00 Ry     beta= 0.70
     Davidson diagonalization with overlap
     ethr =  2.67E-07,  avg # of iterations =  2.0

     total cpu time spent up to now is       11.8 secs

     total energy              =    -325.65142251 Ry
     estimated scf accuracy    <       0.00000215 Ry

     iteration #  7     ecut=   380.00 Ry     beta= 0.70
     Davidson diagonalization with overlap
     ethr =  7.68E-09,  avg # of iterations =  3.2

     total cpu time spent up to now is       13.2 secs

     End of self-consistent calculation

          k = 0.0000 0.0000 0.0000 ( 57001 PWs)   bands (ev):

   -13.7722 -13.7722 -13.7722 -13.7117 -13.7117 -13.3953 -13.3953 -13.3953
   -13.3862 -13.3862  -2.7375   7.2934   8.0250   8.0250

          k =-0.0909 0.0909-0.0909 ( 57175 PWs)   bands (ev):

   -13.7788 -13.7788 -13.7701 -13.7026 -13.7026 -13.4109 -13.4109 -13.3980
   -13.3722 -13.3722  -2.6568   6.2744   7.8577   7.8577

          k =-0.1818 0.1818-0.1818 ( 57209 PWs)   bands (ev):

   -13.7907 -13.7907 -13.7646 -13.6844 -13.6844 -13.4292 -13.4292 -13.4052
   -13.3577 -13.3577  -2.4186   4.8839   7.5177   7.5177

          k =-0.2727 0.2727-0.2727 ( 57188 PWs)   bands (ev):

   -13.8004 -13.8004 -13.7570 -13.6673 -13.6673 -13.4437 -13.4437 -13.4148
   -13.3473 -13.3473  -2.0395   3.5645   7.1898   7.1898

          k =-0.3636 0.3636-0.3636 ( 57227 PWs)   bands (ev):

   -13.8063 -13.8063 -13.7499 -13.6557 -13.6557 -13.4526 -13.4526 -13.4239
   -13.3410 -13.3410  -1.5695   2.4425   6.9496   6.9496

          k =-0.4545 0.4545-0.4545 ( 57227 PWs)   bands (ev):

   -13.8088 -13.8088 -13.7455 -13.6504 -13.6504 -13.4563 -13.4563 -13.4294
   -13.3382 -13.3382  -1.1676   1.7084   6.8248   6.8248

          k = 0.0000 0.1818 0.0000 ( 57194 PWs)   bands (ev):

   -13.7778 -13.7770 -13.7770 -13.7049 -13.6932 -13.4315 -13.3927 -13.3885
   -13.3885 -13.3656  -2.6296   6.1803   7.5743   7.5743

          k =-0.0909 0.2727-0.0909 ( 57179 PWs)   bands (ev):

   -13.7914 -13.7854 -13.7707 -13.6923 -13.6737 -13.4537 -13.4108 -13.3898
   -13.3716 -13.3543  -2.4429   5.1493   7.2065   7.2291

          k =-0.1818 0.3636-0.1818 ( 57189 PWs)   bands (ev):

   -13.8048 -13.7956 -13.7594 -13.6752 -13.6546 -13.4710 -13.4287 -13.4020
   -13.3571 -13.3413  -2.1078   3.9057   6.8281   6.8953

          k =-0.2727 0.4545-0.2727 ( 57223 PWs)   bands (ev):

   -13.8144 -13.8037 -13.7464 -13.6599 -13.6423 -13.4790 -13.4439 -13.4180
   -13.3462 -13.3316  -1.6583   2.7527   6.4663   6.6971

          k =-0.3636 0.5455-0.3636 ( 57218 PWs)   bands (ev):

   -13.8193 -13.8091 -13.7355 -13.6482 -13.6398 -13.4758 -13.4563 -13.4330
   -13.3384 -13.3268  -1.2017   1.8773   6.2057   6.6323

          k = 0.5455-0.3636 0.5455 ( 57215 PWs)   bands (ev):

   -13.8195 -13.8121 -13.7309 -13.6449 -13.6409 -13.4658 -13.4638 -13.4423
   -13.3337 -13.3274  -1.0339   1.6039   6.0716   6.7039

          k = 0.4545-0.2727 0.4545 ( 57233 PWs)   bands (ev):

   -13.8152 -13.8124 -13.7349 -13.6541 -13.6398 -13.4702 -13.4526 -13.4379
   -13.3336 -13.3324  -1.3432   2.1263   6.0789   6.9026

          k = 0.3636-0.1818 0.3636 ( 57218 PWs)   bands (ev):

   -13.8091 -13.8066 -13.7456 -13.6659 -13.6478 -13.4659 -13.4467 -13.4186
   -13.3451 -13.3354  -1.8186   3.1186   6.2402   7.2051

          k = 0.2727-0.0909 0.2727 ( 57200 PWs)   bands (ev):

   -13.8013 -13.7946 -13.7586 -13.6803 -13.6648 -13.4524 -13.4362 -13.3984
   -13.3615 -13.3431  -2.2360   4.3073   6.5752   7.5598

          k = 0.1818-0.0000 0.1818 ( 57177 PWs)   bands (ev):

   -13.7898 -13.7822 -13.7685 -13.6952 -13.6857 -13.4327 -13.4213 -13.3826
   -13.3814 -13.3557  -2.5232   5.4781   7.1356   7.8458

          k = 0.0000 0.3636 0.0000 ( 57178 PWs)   bands (ev):

   -13.7892 -13.7892 -13.7811 -13.6853 -13.6520 -13.4835 -13.4115 -13.3707
   -13.3707 -13.3586  -2.3076   4.7896   6.8269   6.8269

          k =-0.0909 0.4545-0.0909 ( 57178 PWs)   bands (ev):

   -13.8044 -13.7977 -13.7683 -13.6696 -13.6291 -13.5084 -13.4281 -13.3812
   -13.3575 -13.3441  -2.0194   3.9143   6.3915   6.5107

          k =-0.1818 0.5455-0.1818 ( 57173 PWs)   bands (ev):

   -13.8199 -13.8060 -13.7474 -13.6519 -13.6129 -13.5231 -13.4472 -13.4051
   -13.3446 -13.3264  -1.6007   2.9068   5.8897   6.3157

          k =-0.2727 0.6364-0.2727 ( 57198 PWs)   bands (ev):

   -13.8310 -13.8126 -13.7258 -13.6354 -13.6098 -13.5225 -13.4658 -13.4299
   -13.3343 -13.3140  -1.1219   2.0130   5.4751   6.2645

          k = 0.6364-0.2727 0.6364 ( 57222 PWs)   bands (ev):

   -13.8357 -13.8171 -13.7106 -13.6222 -13.6202 -13.5067 -13.4823 -13.4485
   -13.3274 -13.3091  -0.8119   1.5332   5.2104   6.3609

          k = 0.5455-0.1818 0.5455 ( 57234 PWs)   bands (ev):

   -13.8333 -13.8190 -13.7078 -13.6384 -13.6161 -13.4923 -13.4798 -13.4568
   -13.3243 -13.3130  -0.9957   1.8112   5.1283   6.5934

          k = 0.4545-0.0909 0.4545 ( 57223 PWs)   bands (ev):

   -13.8238 -13.8172 -13.7197 -13.6558 -13.6229 -13.4897 -13.4577 -13.4455
   -13.3257 -13.3257  -1.4588   2.6042   5.2722   6.9305

          k = 0.3636 0.0000 0.3636 ( 57189 PWs)   bands (ev):

   -13.8111 -13.8092 -13.7405 -13.6693 -13.6416 -13.4744 -13.4492 -13.4151
   -13.3450 -13.3321  -1.9056   3.5188   5.7262   7.3019

          k = 0.0000 0.5455 0.0000 ( 57210 PWs)   bands (ev):

   -13.8040 -13.8040 -13.7720 -13.6544 -13.6004 -13.5427 -13.4413 -13.3695
   -13.3487 -13.3487  -1.7771   3.4291   6.1776   6.1776

          k =-0.0909 0.6364-0.0909 ( 57173 PWs)   bands (ev):

   -13.8174 -13.8111 -13.7529 -13.6354 -13.5772 -13.5673 -13.4607 -13.3930
   -13.3377 -13.3299  -1.3950   2.6810   5.7419   5.9628

          k =-0.1818 0.7273-0.1818 ( 57169 PWs)   bands (ev):

   -13.8330 -13.8171 -13.7243 -13.6159 -13.5810 -13.5620 -13.4819 -13.4249
   -13.3282 -13.3113  -0.9174   1.9092   5.1848   5.8946

          k = 0.7273-0.1818 0.7273 ( 57225 PWs)   bands (ev):

   -13.8435 -13.8214 -13.7003 -13.5984 -13.5811 -13.5589 -13.5025 -13.4506
   -13.3216 -13.2997  -0.5047   1.3508   4.7526   5.9797

          k = 0.6364-0.0909 0.6364 ( 57228 PWs)   bands (ev):

   -13.8457 -13.8234 -13.6909 -13.6023 -13.5894 -13.5335 -13.5155 -13.4610
   -13.3187 -13.2979  -0.5564   1.4190   4.5612   6.2086

          k = 0.5455 0.0000 0.5455 ( 57219 PWs)   bands (ev):

   -13.8387 -13.8222 -13.6973 -13.6344 -13.5996 -13.5095 -13.4914 -13.4602
   -13.3200 -13.3071  -0.9973   1.9906   4.7027   6.5494

          k = 0.0000 0.7273 0.0000 ( 57190 PWs)   bands (ev):

   -13.8165 -13.8165 -13.7483 -13.6150 -13.6037 -13.5444 -13.4798 -13.3969
   -13.3294 -13.3294  -1.0482   2.1329   5.7189   5.7189

          k =-0.0909 0.8182-0.0909 ( 57178 PWs)   bands (ev):

   -13.8270 -13.8210 -13.7231 -13.6261 -13.5934 -13.5222 -13.5019 -13.4244
   -13.3224 -13.3163  -0.5856   1.4919   5.3406   5.6194

          k = 0.8182-0.0909 0.8182 ( 57239 PWs)   bands (ev):

   -13.8405 -13.8240 -13.6940 -13.6251 -13.5730 -13.5245 -13.5212 -13.4549
   -13.3179 -13.3017  -0.1100   0.9444   4.8162   5.6756

          k = 0.7273 0.0000 0.7273 ( 57249 PWs)   bands (ev):

   -13.8480 -13.8250 -13.6856 -13.5881 -13.5672 -13.5551 -13.5337 -13.4634
   -13.3165 -13.2942  -0.1119   0.9604   4.4874   5.8812

          k = 0.0000 0.9091 0.0000 ( 57182 PWs)   bands (ev):

   -13.8236 -13.8236 -13.7106 -13.6612 -13.5703 -13.5240 -13.4886 -13.4379
   -13.3183 -13.3183  -0.1372   0.9330   5.4833   5.4833

          k = 0.9091-0.0000 0.9091 ( 57210 PWs)   bands (ev):

   -13.8306 -13.8246 -13.6868 -13.6722 -13.5494 -13.5456 -13.4766 -13.4625
   -13.3167 -13.3110   0.3327   0.4442   5.2054   5.5028

          k =-0.1818 0.3636 0.0000 ( 57199 PWs)   bands (ev):

   -13.8013 -13.7951 -13.7633 -13.6800 -13.6524 -13.4775 -13.4239 -13.3901
   -13.3633 -13.3438  -2.2061   4.3516   6.4116   7.1582

          k =-0.2727 0.4545-0.0909 ( 57186 PWs)   bands (ev):

   -13.8133 -13.8069 -13.7457 -13.6646 -13.6328 -13.4950 -13.4396 -13.4114
   -13.3453 -13.3321  -1.8285   3.3352   5.8744   6.8844

          k =-0.3636 0.5455-0.1818 ( 57209 PWs)   bands (ev):

   -13.8244 -13.8136 -13.7271 -13.6497 -13.6219 -13.5014 -13.4538 -13.4359
   -13.3333 -13.3217  -1.3574   2.3482   5.5733   6.6035

          k = 0.5455-0.3636 0.7273 ( 57216 PWs)   bands (ev):

   -13.8306 -13.8166 -13.7152 -13.6367 -13.6226 -13.4953 -13.4707 -13.4494
   -13.3284 -13.3150  -0.9483   1.6599   5.4403   6.4381

          k =-0.1818 0.5455 0.0000 ( 57181 PWs)   bands (ev):

   -13.8122 -13.8104 -13.7533 -13.6532 -13.6055 -13.5337 -13.4447 -13.3964
   -13.3413 -13.3343  -1.6856   3.1850   5.8005   6.3357

          k =-0.2727 0.6364-0.0909 ( 57185 PWs)   bands (ev):

   -13.8273 -13.8177 -13.7276 -13.6354 -13.5896 -13.5478 -13.4642 -13.4248
   -13.3288 -13.3183  -1.2353   2.3583   5.3111   6.0981

          k = 0.6364-0.2727 0.8182 ( 57225 PWs)   bands (ev):

   -13.8386 -13.8220 -13.7039 -13.6188 -13.5887 -13.5448 -13.4850 -13.4497
   -13.3222 -13.3054  -0.7684   1.6430   4.9720   5.9800

          k = 0.5455-0.1818 0.7273 ( 57218 PWs)   bands (ev):

   -13.8423 -13.8240 -13.6929 -13.6136 -13.5943 -13.5314 -13.4985 -13.4610
   -13.3191 -13.3016  -0.6013   1.4162   4.7993   6.0473

          k = 0.4545-0.0909 0.6364 ( 57211 PWs)   bands (ev):

   -13.8373 -13.8234 -13.6992 -13.6317 -13.5960 -13.5258 -13.4794 -13.4596
   -13.3196 -13.3081  -0.9386   1.8863   4.8404   6.2789

          k = 0.3636 0.0000 0.5455 ( 57178 PWs)   bands (ev):

   -13.8248 -13.8193 -13.7206 -13.6503 -13.6102 -13.5150 -13.4531 -13.4414
   -13.3242 -13.3240  -1.4183   2.6300   5.1743   6.6072

          k =-0.1818 0.7273 0.0000 ( 57161 PWs)   bands (ev):

   -13.8230 -13.8227 -13.7309 -13.6154 -13.5920 -13.5532 -13.4812 -13.4168
   -13.3226 -13.3219  -0.9751   2.0281   5.3971   5.7080

          k = 0.7273-0.1818 0.9091 ( 57225 PWs)   bands (ev):

   -13.8374 -13.8267 -13.6993 -13.6019 -13.5952 -13.5418 -13.5039 -13.4496
   -13.3164 -13.3055  -0.4848   1.3870   4.9452   5.5736

          k = 0.6364-0.0909 0.8182 ( 57234 PWs)   bands (ev):

   -13.8464 -13.8285 -13.6798 -13.5890 -13.5782 -13.5538 -13.5234 -13.4684
   -13.3135 -13.2960  -0.1804   1.0396   4.5866   5.6613

          k = 0.5455 0.0000 0.7273 ( 57239 PWs)   bands (ev):

   -13.8463 -13.8277 -13.6814 -13.6008 -13.5719 -13.5534 -13.5170 -13.4681
   -13.3143 -13.2969  -0.4622   1.3586   4.5136   5.9183

          k = 0.8182-0.0909 1.0000 ( 57204 PWs)   bands (ev):

   -13.8298 -13.8294 -13.6948 -13.6472 -13.5712 -13.5250 -13.5008 -13.4535
   -13.3125 -13.3122  -0.0961   0.9190   5.2365   5.3376

          k = 0.7273 0.0000 0.9091 ( 57248 PWs)   bands (ev):

   -13.8410 -13.8302 -13.6728 -13.6366 -13.5556 -13.5439 -13.5092 -13.4749
   -13.3114 -13.3007   0.2398   0.5894   4.8165   5.3954

          k = 0.6364-0.2727 1.0000 ( 57214 PWs)   bands (ev):

   -13.8362 -13.8288 -13.6970 -13.6167 -13.5682 -13.5669 -13.4872 -13.4553
   -13.3142 -13.3083  -0.7677   1.7429   4.8638   5.7667

          k = 0.5455-0.1818 0.9091 ( 57204 PWs)   bands (ev):

   -13.8444 -13.8322 -13.6738 -13.5985 -13.5738 -13.5584 -13.5133 -13.4745
   -13.3102 -13.2983  -0.3246   1.2095   4.6565   5.5325

          k = 0.6364-0.0909 1.0000 ( 57194 PWs)   bands (ev):

   -13.8405 -13.8373 -13.6625 -13.6178 -13.5748 -13.5302 -13.5236 -13.4836
   -13.3046 -13.3015   0.0089   0.8617   4.8441   5.1464

          k = 0.5455 0.0000 0.9091 ( 57214 PWs)   bands (ev):

   -13.8454 -13.8375 -13.6512 -13.6063 -13.5701 -13.5420 -13.5309 -13.4922
   -13.3043 -13.2965   0.1335   0.7441   4.6676   5.1721

     highest occupied level (ev):     8.0250

!    total energy              =    -325.65142477 Ry
     estimated scf accuracy    <          9.3E-09 Ry

     The total energy is the sum of the following terms:
     one-electron contribution =    -150.92290799 Ry
     hartree contribution      =      93.15518770 Ry
     xc contribution           =     -95.22427412 Ry
     ewald contribution        =    -172.65943036 Ry

     convergence has been achieved in   7 iterations

     Writing all to output data dir ./alpha-sn-scf/alphatin.save/ :
     XML data file, charge density, pseudopotentials, collected wavefunctions

     init_run     :      1.54s CPU      1.61s WALL (       1 calls)
     electrons    :     11.11s CPU     11.42s WALL (       1 calls)

     Called by init_run:
     wfcinit      :      0.51s CPU      0.52s WALL (       1 calls)
     potinit      :      0.07s CPU      0.08s WALL (       1 calls)
     hinit0       :      0.49s CPU      0.51s WALL (       1 calls)

     Called by electrons:
     c_bands      :      8.76s CPU      8.92s WALL (       8 calls)
     sum_band     :      1.74s CPU      1.78s WALL (       8 calls)
     v_of_rho     :      0.38s CPU      0.42s WALL (       8 calls)
     newd         :      0.18s CPU      0.20s WALL (       8 calls)
     mix_rho      :      0.05s CPU      0.05s WALL (       8 calls)

     Called by c_bands:
     init_us_2    :      0.21s CPU      0.22s WALL (     238 calls)
     cegterg      :      8.22s CPU      8.31s WALL (     112 calls)

     Called by *egterg:
     cdiaghg      :      0.19s CPU      0.19s WALL (     504 calls)
     h_psi        :      7.50s CPU      7.58s WALL (     532 calls)
     s_psi        :      0.15s CPU      0.15s WALL (     532 calls)
     g_psi        :      0.02s CPU      0.02s WALL (     406 calls)

     Called by h_psi:
     h_psi:calbec :      0.35s CPU      0.36s WALL (     532 calls)
     vloc_psi     :      6.93s CPU      7.00s WALL (     532 calls)
     add_vuspsi   :      0.16s CPU      0.17s WALL (     532 calls)

     General routines
     calbec       :      0.41s CPU      0.41s WALL (     644 calls)
     fft          :      0.65s CPU      0.70s WALL (      89 calls)
     ffts         :      0.03s CPU      0.03s WALL (       8 calls)
     fftw         :      7.18s CPU      7.24s WALL (   10210 calls)

     Parallel routines

     PWSCF        :     13.07s CPU     15.32s WALL


   This run was terminated on:  16: 3:33   4Feb2026            

=------------------------------------------------------------------------------=
   JOB DONE.
=------------------------------------------------------------------------------=
