
     Program PWSCF v.7.3.1 starts on  4Feb2026 at 16: 2:17 

     This program is part of the open-source Quantum ESPRESSO suite
     for quantum simulation of materials; please cite
         "P. Giannozzi et al., J. Phys.:Condens. Matter 21 395502 (2009);
         "P. Giannozzi et al., J. Phys.:Condens. Matter 29 465901 (2017);
         "P. Giannozzi et al., J. Chem. Phys. 152 154105 (2020);
          URL http://www.quantum-espresso.org", 
     in publications or presentations arising from this work. More details at
     http://www.quantum-espresso.org/quote

     Parallel version (MPI), running on   128 processors

     MPI processes distributed on     1 nodes
     241640 MiB available memory on the printing compute node when the environment starts

     Waiting for input...
     Reading input from standard input
     Message from routine read_cards :
     DEPRECATED: no units specified in ATOMIC_POSITIONS card
     Message from routine read_cards :
     ATOMIC_POSITIONS: units set to alat

     Current dimensions of program PWSCF are:
     Max number of different atomic species (ntypx) = 10
     Max number of k-points (npk) =  40000
     Max angular momentum in pseudopotentials (lmaxx) =  4

     K-points division:     npool     =       4
     R & G space division:  proc/nbgrp/npool/nimage =      32
     Subspace diagonalization in iterative solution of the eigenvalue problem:
     a serial algorithm will be used


     Parallelization info
     --------------------
     sticks:   dense  smooth     PW     G-vecs:    dense   smooth      PW
     Min         244     244     64                14289    14289    1960
     Max         245     245     65                14294    14294    1967
     Sum        7813    7813   2077               457287   457287   62847

     Using Slab Decomposition



     bravais-lattice index     =            2
     lattice parameter (alat)  =      12.2300  a.u.
     unit-cell volume          =     457.3191 (a.u.)^3
     number of atoms/cell      =            2
     number of atomic types    =            1
     number of electrons       =        28.00
     number of Kohn-Sham states=           14
     kinetic-energy cutoff     =     380.0000  Ry
     charge density cutoff     =    1520.0000  Ry
     scf convergence threshold =      1.0E-07
     mixing beta               =       0.7000
     number of iterations used =            8  plain     mixing
     Exchange-correlation=  SLA  PW   GGX  GGC
                           (   1   4   2   2   0   0   0)

     celldm(1)=  12.230000  celldm(2)=   0.000000  celldm(3)=   0.000000
     celldm(4)=   0.000000  celldm(5)=   0.000000  celldm(6)=   0.000000

     crystal axes: (cart. coord. in units of alat)
               a(1) = (  -0.500000   0.000000   0.500000 )  
               a(2) = (   0.000000   0.500000   0.500000 )  
               a(3) = (  -0.500000   0.500000   0.000000 )  

     reciprocal axes: (cart. coord. in units 2 pi/alat)
               b(1) = ( -1.000000 -1.000000  1.000000 )  
               b(2) = (  1.000000  1.000000  1.000000 )  
               b(3) = ( -1.000000  1.000000 -1.000000 )  


     PseudoPot. # 1 for Sn read from file:
     ./Sn.pw91-n-van.UPF
     MD5 check sum: a38d2a872edd1a4efd76c0a1a38f7031
     Pseudo is Ultrasoft + core correction, Zval = 14.0
     Generated by new atomic code, or converted to UPF format
     Using radial grid of  891 points,  6 beta functions with: 
                l(1) =   0
                l(2) =   0
                l(3) =   1
                l(4) =   1
                l(5) =   2
                l(6) =   2
     Q(r) pseudized with  8 coefficients,  rinner =    1.100   1.100   1.100
                                                       1.100   1.100

     atomic species   valence    mass     pseudopotential
     Sn               14.00   118.70000     Sn( 1.00)

     48 Sym. Ops., with inversion, found (24 have fractional translation)



   Cartesian axes

     site n.     atom                  positions (alat units)
         1        Sn     tau(   1) = (   0.0000000   0.0000000   0.0000000  )
         2        Sn     tau(   2) = (   0.2500000   0.2500000   0.2500000  )

     number of k points=    20
                       cart. coord. in units 2pi/alat
        k(    1) = (   0.0000000   0.0000000   0.0000000), wk =   0.0058309
        k(    2) = (  -0.1428571   0.1428571  -0.1428571), wk =   0.0466472
        k(    3) = (  -0.2857143   0.2857143  -0.2857143), wk =   0.0466472
        k(    4) = (  -0.4285714   0.4285714  -0.4285714), wk =   0.0466472
        k(    5) = (   0.0000000   0.2857143   0.0000000), wk =   0.0349854
        k(    6) = (  -0.1428571   0.4285714  -0.1428571), wk =   0.1399417
        k(    7) = (  -0.2857143   0.5714286  -0.2857143), wk =   0.1399417
        k(    8) = (   0.5714286  -0.2857143   0.5714286), wk =   0.1399417
        k(    9) = (   0.4285714  -0.1428571   0.4285714), wk =   0.1399417
        k(   10) = (   0.2857143  -0.0000000   0.2857143), wk =   0.0699708
        k(   11) = (   0.0000000   0.5714286   0.0000000), wk =   0.0349854
        k(   12) = (  -0.1428571   0.7142857  -0.1428571), wk =   0.1399417
        k(   13) = (   0.7142857  -0.1428571   0.7142857), wk =   0.1399417
        k(   14) = (   0.5714286   0.0000000   0.5714286), wk =   0.0699708
        k(   15) = (   0.0000000   0.8571429   0.0000000), wk =   0.0349854
        k(   16) = (   0.8571429  -0.0000000   0.8571429), wk =   0.0699708
        k(   17) = (  -0.2857143   0.5714286   0.0000000), wk =   0.1399417
        k(   18) = (   0.5714286  -0.2857143   0.8571429), wk =   0.2798834
        k(   19) = (   0.7142857  -0.1428571   1.0000000), wk =   0.1399417
        k(   20) = (   0.5714286   0.0000000   0.8571429), wk =   0.1399417

     Dense  grid:   457287 G-vectors     FFT dimensions: ( 108, 108, 108)

     Estimated max dynamical RAM per process >      25.95 MB

     Estimated total dynamical RAM >       2.92 GB

     Initial potential from superposition of free atoms

     starting charge      27.9964, renormalised to      28.0000

     negative rho (up, down):  2.695E-05 0.000E+00
     Starting wfcs are   18 randomized atomic wfcs

     total cpu time spent up to now is        1.6 secs

     per-process dynamical memory:    26.3 Mb

     Self-consistent Calculation

     iteration #  1     ecut=   380.00 Ry     beta= 0.70
     Davidson diagonalization with overlap
     ethr =  1.00E-02,  avg # of iterations =  3.0

     Threshold (ethr) on eigenvalues was too large:
     Diagonalizing with lowered threshold

     Davidson diagonalization with overlap
     ethr =  7.16E-05,  avg # of iterations =  3.8

     negative rho (up, down):  1.403E-05 0.000E+00

     total cpu time spent up to now is        2.7 secs

     total energy              =    -325.51173114 Ry
     estimated scf accuracy    <       0.02429203 Ry

     iteration #  2     ecut=   380.00 Ry     beta= 0.70
     Davidson diagonalization with overlap
     ethr =  8.68E-05,  avg # of iterations =  4.8

     negative rho (up, down):  8.028E-06 0.000E+00

     total cpu time spent up to now is        3.5 secs

     total energy              =    -325.60426015 Ry
     estimated scf accuracy    <       0.04653529 Ry

     iteration #  3     ecut=   380.00 Ry     beta= 0.70
     Davidson diagonalization with overlap
     ethr =  8.68E-05,  avg # of iterations =  1.9

     total cpu time spent up to now is        4.0 secs

     total energy              =    -325.63634594 Ry
     estimated scf accuracy    <       0.01849266 Ry

     iteration #  4     ecut=   380.00 Ry     beta= 0.70
     Davidson diagonalization with overlap
     ethr =  6.60E-05,  avg # of iterations =  2.4

     total cpu time spent up to now is        4.6 secs

     total energy              =    -325.64635280 Ry
     estimated scf accuracy    <       0.00004800 Ry

     iteration #  5     ecut=   380.00 Ry     beta= 0.70
     Davidson diagonalization with overlap
     ethr =  1.71E-07,  avg # of iterations =  5.2

     total cpu time spent up to now is        5.3 secs

     total energy              =    -325.64967273 Ry
     estimated scf accuracy    <       0.00013099 Ry

     iteration #  6     ecut=   380.00 Ry     beta= 0.70
     Davidson diagonalization with overlap
     ethr =  1.71E-07,  avg # of iterations =  2.8

     total cpu time spent up to now is        6.0 secs

     total energy              =    -325.65017923 Ry
     estimated scf accuracy    <       0.00002734 Ry

     iteration #  7     ecut=   380.00 Ry     beta= 0.70
     Davidson diagonalization with overlap
     ethr =  9.77E-08,  avg # of iterations =  2.0

     total cpu time spent up to now is        6.5 secs

     total energy              =    -325.65018120 Ry
     estimated scf accuracy    <       0.00000012 Ry

     iteration #  8     ecut=   380.00 Ry     beta= 0.70
     Davidson diagonalization with overlap
     ethr =  4.20E-10,  avg # of iterations =  4.8

     total cpu time spent up to now is        7.2 secs

     End of self-consistent calculation

          k = 0.0000 0.0000 0.0000 ( 57001 PWs)   bands (ev):

   -13.7669 -13.7669 -13.7669 -13.7065 -13.7065 -13.3901 -13.3901 -13.3901
   -13.3811 -13.3811  -2.7332   7.2984   8.0294   8.0294

          k =-0.1429 0.1429-0.1429 ( 57200 PWs)   bands (ev):

   -13.7803 -13.7803 -13.7620 -13.6873 -13.6873 -13.4165 -13.4165 -13.3964
   -13.3583 -13.3583  -2.5350   5.4848   7.6737   7.6737

          k =-0.2857 0.2857-0.2857 ( 57203 PWs)   bands (ev):

   -13.7961 -13.7961 -13.7506 -13.6601 -13.6601 -13.4402 -13.4402 -13.4109
   -13.3409 -13.3409  -1.9716   3.3935   7.1532   7.1532

          k =-0.4286 0.4286-0.4286 ( 57218 PWs)   bands (ev):

   -13.8031 -13.8031 -13.7410 -13.6462 -13.6462 -13.4505 -13.4505 -13.4231
   -13.3335 -13.3335  -1.2531   1.8638   6.8519   6.8519

          k = 0.0000 0.2857 0.0000 ( 57214 PWs)   bands (ev):

   -13.7781 -13.7781 -13.7757 -13.6901 -13.6662 -13.4548 -13.3969 -13.3741
   -13.3741 -13.3542  -2.4672   5.3894   7.1497   7.1497

          k =-0.1429 0.4286-0.1429 ( 57196 PWs)   bands (ev):

   -13.8023 -13.7920 -13.7562 -13.6659 -13.6332 -13.4894 -13.4238 -13.3879
   -13.3516 -13.3341  -2.0169   3.8156   6.4721   6.6436

          k =-0.2857 0.5714-0.2857 ( 57202 PWs)   bands (ev):

   -13.8198 -13.8039 -13.7280 -13.6407 -13.6190 -13.4978 -13.4511 -13.4210
   -13.3337 -13.3152  -1.2954   2.2004   5.8386   6.4348

          k = 0.5714-0.2857 0.5714 ( 57211 PWs)   bands (ev):

   -13.8236 -13.8103 -13.7119 -13.6321 -13.6238 -13.4735 -13.4725 -13.4449
   -13.3237 -13.3120  -0.9340   1.6030   5.5194   6.5775

          k = 0.4286-0.1429 0.4286 ( 57234 PWs)   bands (ev):

   -13.8125 -13.8093 -13.7239 -13.6541 -13.6269 -13.4756 -13.4481 -13.4307
   -13.3273 -13.3236  -1.5555   2.6978   5.6178   7.0258

          k = 0.2857-0.0000 0.2857 ( 57157 PWs)   bands (ev):

   -13.7978 -13.7908 -13.7510 -13.6749 -13.6557 -13.4518 -13.4334 -13.3907
   -13.3571 -13.3355  -2.2111   4.3182   6.3164   7.5800

          k = 0.0000 0.5714 0.0000 ( 57202 PWs)   bands (ev):

   -13.8007 -13.8007 -13.7643 -13.6441 -13.5874 -13.5462 -13.4412 -13.3672
   -13.3404 -13.3404  -1.6804   3.2439   6.1030   6.1030

          k =-0.1429 0.7143-0.1429 ( 57147 PWs)   bands (ev):

   -13.8229 -13.8109 -13.7276 -13.6133 -13.5795 -13.5546 -13.4732 -13.4098
   -13.3245 -13.3114  -1.0146   2.0781   5.3481   5.8566

          k = 0.7143-0.1429 0.7143 ( 57237 PWs)   bands (ev):

   -13.8402 -13.8174 -13.6897 -13.5856 -13.5747 -13.5551 -13.5056 -13.4504
   -13.3145 -13.2922  -0.3948   1.2456   4.6451   5.9843

          k = 0.5714 0.0000 0.5714 ( 57241 PWs)   bands (ev):

   -13.8364 -13.8177 -13.6883 -13.6204 -13.5891 -13.5086 -13.4989 -13.4561
   -13.3139 -13.2980  -0.8542   1.8167   4.6166   6.4464

          k = 0.0000 0.8571 0.0000 ( 57166 PWs)   bands (ev):

   -13.8169 -13.8169 -13.7175 -13.6402 -13.5783 -13.5058 -13.4990 -13.4198
   -13.3152 -13.3152  -0.4104   1.2685   5.5305   5.5305

          k = 0.8571-0.0000 0.8571 ( 57228 PWs)   bands (ev):

   -13.8316 -13.8195 -13.6811 -13.6476 -13.5476 -13.5383 -13.4896 -13.4576
   -13.3114 -13.2995   0.2631   0.5435   4.9548   5.5780

          k =-0.2857 0.5714 0.0000 ( 57157 PWs)   bands (ev):

   -13.8149 -13.8132 -13.7268 -13.6423 -13.5979 -13.5257 -13.4478 -13.4176
   -13.3240 -13.3207  -1.4618   2.7489   5.3748   6.3827

          k = 0.5714-0.2857 0.8571 ( 57219 PWs)   bands (ev):

   -13.8343 -13.8196 -13.6903 -13.6153 -13.5830 -13.5350 -13.4825 -13.4541
   -13.3133 -13.2993  -0.7282   1.6169   4.8632   5.9829

          k = 0.7143-0.1429 1.0000 ( 57230 PWs)   bands (ev):

   -13.8300 -13.8276 -13.6825 -13.6110 -13.5807 -13.5226 -13.5089 -13.4552
   -13.3042 -13.3021  -0.2869   1.1770   4.9983   5.3311

          k = 0.5714 0.0000 0.8571 ( 57206 PWs)   bands (ev):

   -13.8414 -13.8285 -13.6580 -13.5887 -13.5700 -13.5369 -13.5311 -13.4769
   -13.3028 -13.2901  -0.0086   0.8916   4.5837   5.4003

     highest occupied level (ev):     8.0294

!    total energy              =    -325.65018195 Ry
     estimated scf accuracy    <       0.00000005 Ry

     The total energy is the sum of the following terms:
     one-electron contribution =    -150.93305269 Ry
     hartree contribution      =      93.16793175 Ry
     xc contribution           =     -95.22563065 Ry
     ewald contribution        =    -172.65943036 Ry

     convergence has been achieved in   8 iterations

     Writing all to output data dir ./alpha-sn-scf/alphatin.save/ :
     XML data file, charge density, pseudopotentials, collected wavefunctions

     init_run     :      1.25s CPU      1.31s WALL (       1 calls)
     electrons    :      5.37s CPU      5.71s WALL (       1 calls)

     Called by init_run:
     wfcinit      :      0.19s CPU      0.20s WALL (       1 calls)
     potinit      :      0.06s CPU      0.07s WALL (       1 calls)
     hinit0       :      0.50s CPU      0.51s WALL (       1 calls)

     Called by electrons:
     c_bands      :      3.77s CPU      3.94s WALL (       9 calls)
     sum_band     :      0.92s CPU      0.94s WALL (       9 calls)
     v_of_rho     :      0.43s CPU      0.47s WALL (       9 calls)
     newd         :      0.21s CPU      0.22s WALL (       9 calls)
     mix_rho      :      0.06s CPU      0.06s WALL (       9 calls)

     Called by c_bands:
     init_us_2    :      0.09s CPU      0.09s WALL (      95 calls)
     cegterg      :      3.54s CPU      3.59s WALL (      45 calls)

     Called by *egterg:
     cdiaghg      :      0.08s CPU      0.08s WALL (     211 calls)
     h_psi        :      3.20s CPU      3.26s WALL (     221 calls)
     s_psi        :      0.06s CPU      0.06s WALL (     221 calls)
     g_psi        :      0.01s CPU      0.01s WALL (     171 calls)

     Called by h_psi:
     h_psi:calbec :      0.15s CPU      0.15s WALL (     221 calls)
     vloc_psi     :      2.96s CPU      3.02s WALL (     221 calls)
     add_vuspsi   :      0.07s CPU      0.07s WALL (     221 calls)

     General routines
     calbec       :      0.17s CPU      0.17s WALL (     266 calls)
     fft          :      0.68s CPU      0.72s WALL (     100 calls)
     ffts         :      0.02s CPU      0.03s WALL (       9 calls)
     fftw         :      3.04s CPU      3.09s WALL (    4360 calls)

     Parallel routines

     PWSCF        :      7.02s CPU      8.15s WALL


   This run was terminated on:  16: 2:25   4Feb2026            

=------------------------------------------------------------------------------=
   JOB DONE.
=------------------------------------------------------------------------------=
