
     Program PWSCF v.7.3.1 starts on  4Feb2026 at 16: 3:36 

     This program is part of the open-source Quantum ESPRESSO suite
     for quantum simulation of materials; please cite
         "P. Giannozzi et al., J. Phys.:Condens. Matter 21 395502 (2009);
         "P. Giannozzi et al., J. Phys.:Condens. Matter 29 465901 (2017);
         "P. Giannozzi et al., J. Chem. Phys. 152 154105 (2020);
          URL http://www.quantum-espresso.org", 
     in publications or presentations arising from this work. More details at
     http://www.quantum-espresso.org/quote

     Parallel version (MPI), running on   128 processors

     MPI processes distributed on     1 nodes
     240994 MiB available memory on the printing compute node when the environment starts

     Waiting for input...
     Reading input from standard input
     Message from routine read_cards :
     DEPRECATED: no units specified in ATOMIC_POSITIONS card
     Message from routine read_cards :
     ATOMIC_POSITIONS: units set to alat

     Current dimensions of program PWSCF are:
     Max number of different atomic species (ntypx) = 10
     Max number of k-points (npk) =  40000
     Max angular momentum in pseudopotentials (lmaxx) =  4

     K-points division:     npool     =       4
     R & G space division:  proc/nbgrp/npool/nimage =      32
     Subspace diagonalization in iterative solution of the eigenvalue problem:
     a serial algorithm will be used


     Parallelization info
     --------------------
     sticks:   dense  smooth     PW     G-vecs:    dense   smooth      PW
     Min         244     244     65                14289    14289    1980
     Max         245     245     66                14294    14294    1981
     Sum        7813    7813   2095               457287   457287   63375

     Using Slab Decomposition



     bravais-lattice index     =            2
     lattice parameter (alat)  =      12.2300  a.u.
     unit-cell volume          =     457.3191 (a.u.)^3
     number of atoms/cell      =            2
     number of atomic types    =            1
     number of electrons       =        28.00
     number of Kohn-Sham states=           14
     kinetic-energy cutoff     =     380.0000  Ry
     charge density cutoff     =    1520.0000  Ry
     scf convergence threshold =      1.0E-07
     mixing beta               =       0.7000
     number of iterations used =            8  plain     mixing
     Exchange-correlation=  SLA  PW   GGX  GGC
                           (   1   4   2   2   0   0   0)

     celldm(1)=  12.230000  celldm(2)=   0.000000  celldm(3)=   0.000000
     celldm(4)=   0.000000  celldm(5)=   0.000000  celldm(6)=   0.000000

     crystal axes: (cart. coord. in units of alat)
               a(1) = (  -0.500000   0.000000   0.500000 )  
               a(2) = (   0.000000   0.500000   0.500000 )  
               a(3) = (  -0.500000   0.500000   0.000000 )  

     reciprocal axes: (cart. coord. in units 2 pi/alat)
               b(1) = ( -1.000000 -1.000000  1.000000 )  
               b(2) = (  1.000000  1.000000  1.000000 )  
               b(3) = ( -1.000000  1.000000 -1.000000 )  


     PseudoPot. # 1 for Sn read from file:
     ./Sn.pw91-n-van.UPF
     MD5 check sum: a38d2a872edd1a4efd76c0a1a38f7031
     Pseudo is Ultrasoft + core correction, Zval = 14.0
     Generated by new atomic code, or converted to UPF format
     Using radial grid of  891 points,  6 beta functions with: 
                l(1) =   0
                l(2) =   0
                l(3) =   1
                l(4) =   1
                l(5) =   2
                l(6) =   2
     Q(r) pseudized with  8 coefficients,  rinner =    1.100   1.100   1.100
                                                       1.100   1.100

     atomic species   valence    mass     pseudopotential
     Sn               14.00   118.70000     Sn( 1.00)

     48 Sym. Ops., with inversion, found (24 have fractional translation)



   Cartesian axes

     site n.     atom                  positions (alat units)
         1        Sn     tau(   1) = (   0.0000000   0.0000000   0.0000000  )
         2        Sn     tau(   2) = (   0.2500000   0.2500000   0.2500000  )

     number of k points=    72
                       cart. coord. in units 2pi/alat
        k(    1) = (   0.0000000   0.0000000   0.0000000), wk =   0.0011574
        k(    2) = (  -0.0833333   0.0833333  -0.0833333), wk =   0.0092593
        k(    3) = (  -0.1666667   0.1666667  -0.1666667), wk =   0.0092593
        k(    4) = (  -0.2500000   0.2500000  -0.2500000), wk =   0.0092593
        k(    5) = (  -0.3333333   0.3333333  -0.3333333), wk =   0.0092593
        k(    6) = (  -0.4166667   0.4166667  -0.4166667), wk =   0.0092593
        k(    7) = (   0.5000000  -0.5000000   0.5000000), wk =   0.0046296
        k(    8) = (   0.0000000   0.1666667   0.0000000), wk =   0.0069444
        k(    9) = (  -0.0833333   0.2500000  -0.0833333), wk =   0.0277778
        k(   10) = (  -0.1666667   0.3333333  -0.1666667), wk =   0.0277778
        k(   11) = (  -0.2500000   0.4166667  -0.2500000), wk =   0.0277778
        k(   12) = (  -0.3333333   0.5000000  -0.3333333), wk =   0.0277778
        k(   13) = (   0.5833333  -0.4166667   0.5833333), wk =   0.0277778
        k(   14) = (   0.5000000  -0.3333333   0.5000000), wk =   0.0277778
        k(   15) = (   0.4166667  -0.2500000   0.4166667), wk =   0.0277778
        k(   16) = (   0.3333333  -0.1666667   0.3333333), wk =   0.0277778
        k(   17) = (   0.2500000  -0.0833333   0.2500000), wk =   0.0277778
        k(   18) = (   0.1666667  -0.0000000   0.1666667), wk =   0.0138889
        k(   19) = (   0.0000000   0.3333333   0.0000000), wk =   0.0069444
        k(   20) = (  -0.0833333   0.4166667  -0.0833333), wk =   0.0277778
        k(   21) = (  -0.1666667   0.5000000  -0.1666667), wk =   0.0277778
        k(   22) = (  -0.2500000   0.5833333  -0.2500000), wk =   0.0277778
        k(   23) = (   0.6666667  -0.3333333   0.6666667), wk =   0.0277778
        k(   24) = (   0.5833333  -0.2500000   0.5833333), wk =   0.0277778
        k(   25) = (   0.5000000  -0.1666667   0.5000000), wk =   0.0277778
        k(   26) = (   0.4166667  -0.0833333   0.4166667), wk =   0.0277778
        k(   27) = (   0.3333333   0.0000000   0.3333333), wk =   0.0138889
        k(   28) = (   0.0000000   0.5000000   0.0000000), wk =   0.0069444
        k(   29) = (  -0.0833333   0.5833333  -0.0833333), wk =   0.0277778
        k(   30) = (  -0.1666667   0.6666667  -0.1666667), wk =   0.0277778
        k(   31) = (   0.7500000  -0.2500000   0.7500000), wk =   0.0277778
        k(   32) = (   0.6666667  -0.1666667   0.6666667), wk =   0.0277778
        k(   33) = (   0.5833333  -0.0833333   0.5833333), wk =   0.0277778
        k(   34) = (   0.5000000   0.0000000   0.5000000), wk =   0.0138889
        k(   35) = (   0.0000000   0.6666667   0.0000000), wk =   0.0069444
        k(   36) = (  -0.0833333   0.7500000  -0.0833333), wk =   0.0277778
        k(   37) = (   0.8333333  -0.1666667   0.8333333), wk =   0.0277778
        k(   38) = (   0.7500000  -0.0833333   0.7500000), wk =   0.0277778
        k(   39) = (   0.6666667  -0.0000000   0.6666667), wk =   0.0138889
        k(   40) = (   0.0000000   0.8333333   0.0000000), wk =   0.0069444
        k(   41) = (   0.9166667  -0.0833333   0.9166667), wk =   0.0277778
        k(   42) = (   0.8333333   0.0000000   0.8333333), wk =   0.0138889
        k(   43) = (   0.0000000  -1.0000000   0.0000000), wk =   0.0034722
        k(   44) = (  -0.1666667   0.3333333   0.0000000), wk =   0.0277778
        k(   45) = (  -0.2500000   0.4166667  -0.0833333), wk =   0.0555556
        k(   46) = (  -0.3333333   0.5000000  -0.1666667), wk =   0.0555556
        k(   47) = (   0.5833333  -0.4166667   0.7500000), wk =   0.0555556
        k(   48) = (   0.5000000  -0.3333333   0.6666667), wk =   0.0277778
        k(   49) = (  -0.1666667   0.5000000   0.0000000), wk =   0.0277778
        k(   50) = (  -0.2500000   0.5833333  -0.0833333), wk =   0.0555556
        k(   51) = (   0.6666667  -0.3333333   0.8333333), wk =   0.0555556
        k(   52) = (   0.5833333  -0.2500000   0.7500000), wk =   0.0555556
        k(   53) = (   0.5000000  -0.1666667   0.6666667), wk =   0.0555556
        k(   54) = (   0.4166667  -0.0833333   0.5833333), wk =   0.0555556
        k(   55) = (   0.3333333   0.0000000   0.5000000), wk =   0.0277778
        k(   56) = (  -0.1666667   0.6666667  -0.0000000), wk =   0.0277778
        k(   57) = (   0.7500000  -0.2500000   0.9166667), wk =   0.0555556
        k(   58) = (   0.6666667  -0.1666667   0.8333333), wk =   0.0555556
        k(   59) = (   0.5833333  -0.0833333   0.7500000), wk =   0.0555556
        k(   60) = (   0.5000000   0.0000000   0.6666667), wk =   0.0277778
        k(   61) = (   0.8333333  -0.1666667   1.0000000), wk =   0.0277778
        k(   62) = (   0.7500000  -0.0833333   0.9166667), wk =   0.0555556
        k(   63) = (   0.6666667   0.0000000   0.8333333), wk =   0.0277778
        k(   64) = (  -0.1666667  -1.0000000  -0.0000000), wk =   0.0138889
        k(   65) = (   0.6666667  -0.3333333   1.0000000), wk =   0.0277778
        k(   66) = (   0.5833333  -0.2500000   0.9166667), wk =   0.0555556
        k(   67) = (   0.5000000  -0.1666667   0.8333333), wk =   0.0277778
        k(   68) = (   0.6666667  -0.1666667   1.0000000), wk =   0.0277778
        k(   69) = (   0.5833333  -0.0833333   0.9166667), wk =   0.0555556
        k(   70) = (   0.5000000   0.0000000   0.8333333), wk =   0.0277778
        k(   71) = (  -0.3333333  -1.0000000   0.0000000), wk =   0.0138889
        k(   72) = (  -0.5000000  -1.0000000   0.0000000), wk =   0.0069444

     Dense  grid:   457287 G-vectors     FFT dimensions: ( 108, 108, 108)

     Estimated max dynamical RAM per process >      30.92 MB

     Estimated total dynamical RAM >       3.54 GB

     Initial potential from superposition of free atoms

     starting charge      27.9964, renormalised to      28.0000

     negative rho (up, down):  2.695E-05 0.000E+00
     Starting wfcs are   18 randomized atomic wfcs

     total cpu time spent up to now is        2.1 secs

     per-process dynamical memory:    28.0 Mb

     Self-consistent Calculation

     iteration #  1     ecut=   380.00 Ry     beta= 0.70
     Davidson diagonalization with overlap
     ethr =  1.00E-02,  avg # of iterations =  3.1

     Threshold (ethr) on eigenvalues was too large:
     Diagonalizing with lowered threshold

     Davidson diagonalization with overlap
     ethr =  7.50E-05,  avg # of iterations =  3.8

     negative rho (up, down):  1.439E-05 0.000E+00

     total cpu time spent up to now is        5.6 secs

     total energy              =    -325.51618858 Ry
     estimated scf accuracy    <       0.02486836 Ry

     iteration #  2     ecut=   380.00 Ry     beta= 0.70
     Davidson diagonalization with overlap
     ethr =  8.88E-05,  avg # of iterations =  5.0

     negative rho (up, down):  8.533E-06 0.000E+00

     total cpu time spent up to now is        7.9 secs

     total energy              =    -325.61132098 Ry
     estimated scf accuracy    <       0.04826433 Ry

     iteration #  3     ecut=   380.00 Ry     beta= 0.70
     Davidson diagonalization with overlap
     ethr =  8.88E-05,  avg # of iterations =  1.9

     total cpu time spent up to now is        9.4 secs

     total energy              =    -325.64349777 Ry
     estimated scf accuracy    <       0.01926463 Ry

     iteration #  4     ecut=   380.00 Ry     beta= 0.70
     Davidson diagonalization with overlap
     ethr =  6.88E-05,  avg # of iterations =  2.2

     total cpu time spent up to now is       11.0 secs

     total energy              =    -325.65022128 Ry
     estimated scf accuracy    <       0.00006418 Ry

     iteration #  5     ecut=   380.00 Ry     beta= 0.70
     Davidson diagonalization with overlap
     ethr =  2.29E-07,  avg # of iterations =  4.3

     total cpu time spent up to now is       13.1 secs

     total energy              =    -325.65139981 Ry
     estimated scf accuracy    <       0.00009887 Ry

     iteration #  6     ecut=   380.00 Ry     beta= 0.70
     Davidson diagonalization with overlap
     ethr =  2.29E-07,  avg # of iterations =  2.0

     total cpu time spent up to now is       14.6 secs

     total energy              =    -325.65148008 Ry
     estimated scf accuracy    <       0.00000184 Ry

     iteration #  7     ecut=   380.00 Ry     beta= 0.70
     Davidson diagonalization with overlap
     ethr =  6.57E-09,  avg # of iterations =  3.3

     total cpu time spent up to now is       16.4 secs

     End of self-consistent calculation

          k = 0.0000 0.0000 0.0000 ( 57001 PWs)   bands (ev):

   -13.7728 -13.7728 -13.7728 -13.7123 -13.7123 -13.3960 -13.3960 -13.3960
   -13.3868 -13.3868  -2.7380   7.2929   8.0245   8.0245

          k =-0.0833 0.0833-0.0833 ( 57160 PWs)   bands (ev):

   -13.7785 -13.7785 -13.7711 -13.7045 -13.7045 -13.4100 -13.4100 -13.3982
   -13.3742 -13.3742  -2.6701   6.3870   7.8814   7.8814

          k =-0.1667 0.1667-0.1667 ( 57218 PWs)   bands (ev):

   -13.7894 -13.7894 -13.7663 -13.6881 -13.6881 -13.4269 -13.4269 -13.4043
   -13.3605 -13.3605  -2.4692   5.1142   7.5764   7.5764

          k =-0.2500 0.2500-0.2500 ( 57191 PWs)   bands (ev):

   -13.7989 -13.7989 -13.7596 -13.6717 -13.6717 -13.4412 -13.4412 -13.4129
   -13.3501 -13.3501  -2.1461   3.8801   7.2649   7.2649

          k =-0.3333 0.3333-0.3333 ( 57203 PWs)   bands (ev):

   -13.8053 -13.8053 -13.7527 -13.6594 -13.6594 -13.4509 -13.4509 -13.4217
   -13.3433 -13.3433  -1.7306   2.7856   7.0173   7.0173

          k =-0.4167 0.4167-0.4167 ( 57212 PWs)   bands (ev):

   -13.8087 -13.8087 -13.7475 -13.6525 -13.6525 -13.4559 -13.4559 -13.4283
   -13.3396 -13.3396  -1.3081   1.9465   6.8615   6.8615

          k = 0.5000-0.5000 0.5000 ( 57200 PWs)   bands (ev):

   -13.8097 -13.8097 -13.7455 -13.6504 -13.6504 -13.4573 -13.4573 -13.4308
   -13.3385 -13.3385  -1.1006   1.5987   6.8086   6.8086

          k = 0.0000 0.1667 0.0000 ( 57170 PWs)   bands (ev):

   -13.7778 -13.7769 -13.7769 -13.7066 -13.6964 -13.4282 -13.3923 -13.3902
   -13.3902 -13.3676  -2.6473   6.2949   7.6330   7.6330

          k =-0.0833 0.2500-0.0833 ( 57187 PWs)   bands (ev):

   -13.7898 -13.7844 -13.7719 -13.6956 -13.6792 -13.4485 -13.4094 -13.3909
   -13.3741 -13.3571  -2.4901   5.3526   7.2969   7.3323

          k =-0.1667 0.3333-0.1667 ( 57187 PWs)   bands (ev):

   -13.8022 -13.7940 -13.7626 -13.6799 -13.6611 -13.4651 -13.4259 -13.4006
   -13.3604 -13.3451  -2.2059   4.1972   6.9753   6.9943

          k =-0.2500 0.4167-0.2500 ( 57204 PWs)   bands (ev):

   -13.8117 -13.8020 -13.7514 -13.6652 -13.6477 -13.4750 -13.4402 -13.4143
   -13.3498 -13.3356  -1.8157   3.0928   6.6335   6.7780

          k =-0.3333 0.5000-0.3333 ( 57224 PWs)   bands (ev):

   -13.8174 -13.8077 -13.7410 -13.6536 -13.6420 -13.4759 -13.4520 -13.4281
   -13.3419 -13.3299  -1.3786   2.1720   6.3660   6.6693

          k = 0.5833-0.4167 0.5833 ( 57243 PWs)   bands (ev):

   -13.8192 -13.8113 -13.7344 -13.6455 -13.6436 -13.4687 -13.4614 -13.4386
   -13.3366 -13.3285  -1.0640   1.6333   6.1973   6.6745

          k = 0.5000-0.3333 0.5000 ( 57240 PWs)   bands (ev):

   -13.8174 -13.8128 -13.7342 -13.6499 -13.6415 -13.4677 -13.4575 -13.4417
   -13.3339 -13.3315  -1.1383   1.7534   6.1405   6.7909

          k = 0.4167-0.2500 0.4167 ( 57223 PWs)   bands (ev):

   -13.8121 -13.8118 -13.7405 -13.6589 -13.6438 -13.4686 -13.4509 -13.4308
   -13.3389 -13.3343  -1.5241   2.4522   6.2045   7.0078

          k = 0.3333-0.1667 0.3333 ( 57209 PWs)   bands (ev):

   -13.8074 -13.8034 -13.7510 -13.6704 -13.6539 -13.4619 -13.4443 -13.4132
   -13.3503 -13.3385  -1.9565   3.4473   6.3977   7.3023

          k = 0.2500-0.0833 0.2500 ( 57198 PWs)   bands (ev):

   -13.7993 -13.7922 -13.7621 -13.6842 -13.6706 -13.4481 -13.4334 -13.3962
   -13.3656 -13.3467  -2.3147   4.5706   6.7338   7.6266

          k = 0.1667-0.0000 0.1667 ( 57163 PWs)   bands (ev):

   -13.7884 -13.7812 -13.7701 -13.6980 -13.6897 -13.4298 -13.4192 -13.3842
   -13.3824 -13.3588  -2.5576   5.6545   7.2507   7.8745

          k = 0.0000 0.3333 0.0000 ( 57190 PWs)   bands (ev):

   -13.7875 -13.7875 -13.7820 -13.6900 -13.6604 -13.4748 -13.4082 -13.3748
   -13.3748 -13.3591  -2.3764   5.0200   6.9487   6.9487

          k =-0.0833 0.4167-0.0833 ( 57168 PWs)   bands (ev):

   -13.8014 -13.7953 -13.7715 -13.6762 -13.6396 -13.4977 -13.4230 -13.3808
   -13.3625 -13.3480  -2.1328   4.2058   6.5608   6.6422

          k =-0.1667 0.5000-0.1667 ( 57187 PWs)   bands (ev):

   -13.8158 -13.8033 -13.7542 -13.6602 -13.6231 -13.5131 -13.4403 -13.4000
   -13.3500 -13.3322  -1.7739   3.2458   6.1120   6.4293

          k =-0.2500 0.5833-0.2500 ( 57201 PWs)   bands (ev):

   -13.8268 -13.8100 -13.7352 -13.6450 -13.6160 -13.5171 -13.4570 -13.4220
   -13.3397 -13.3200  -1.3397   2.3438   5.7175   6.3326

          k = 0.6667-0.3333 0.6667 ( 57249 PWs)   bands (ev):

   -13.8330 -13.8150 -13.7195 -13.6320 -13.6203 -13.5081 -13.4725 -13.4412
   -13.3320 -13.3133  -0.9506   1.6904   5.4325   6.3591

          k = 0.5833-0.2500 0.5833 ( 57216 PWs)   bands (ev):

   -13.8336 -13.8180 -13.7117 -13.6330 -13.6230 -13.4886 -13.4848 -13.4532
   -13.3273 -13.3133  -0.8821   1.5879   5.2818   6.5054

          k = 0.5000-0.1667 0.5000 ( 57189 PWs)   bands (ev):

   -13.8285 -13.8184 -13.7153 -13.6485 -13.6218 -13.4897 -13.4628 -13.4566
   -13.3261 -13.3204  -1.2075   2.1083   5.2876   6.7568

          k = 0.4167-0.0833 0.4167 ( 57217 PWs)   bands (ev):

   -13.8183 -13.8155 -13.7295 -13.6622 -13.6315 -13.4837 -13.4547 -13.4329
   -13.3342 -13.3288  -1.6463   2.9364   5.4862   7.0816

          k = 0.3333 0.0000 0.3333 ( 57179 PWs)   bands (ev):

   -13.8089 -13.8046 -13.7479 -13.6740 -13.6497 -13.4683 -13.4460 -13.4073
   -13.3525 -13.3358  -2.0339   3.8183   5.9469   7.4141

          k = 0.0000 0.5000 0.0000 ( 57154 PWs)   bands (ev):

   -13.8010 -13.8010 -13.7762 -13.6637 -13.6145 -13.5281 -13.4336 -13.3657
   -13.3548 -13.3548  -1.9292   3.7639   6.3236   6.3236

          k =-0.0833 0.5833-0.0833 ( 57177 PWs)   bands (ev):

   -13.8135 -13.8079 -13.7608 -13.6471 -13.5926 -13.5517 -13.4505 -13.3861
   -13.3441 -13.3362  -1.6045   3.0560   5.9270   6.0966

          k =-0.1667 0.6667-0.1667 ( 57152 PWs)   bands (ev):

   -13.8284 -13.8142 -13.7363 -13.6296 -13.5811 -13.5621 -13.4694 -13.4140
   -13.3342 -13.3182  -1.1852   2.2909   5.4192   5.9878

          k = 0.7500-0.2500 0.7500 ( 57219 PWs)   bands (ev):

   -13.8396 -13.8191 -13.7125 -13.6130 -13.5843 -13.5562 -13.4883 -13.4402
   -13.3265 -13.3055  -0.7525   1.6347   4.9876   6.0067

          k = 0.6667-0.1667 0.6667 ( 57231 PWs)   bands (ev):

   -13.8447 -13.8223 -13.6975 -13.6001 -13.5982 -13.5388 -13.5046 -13.4565
   -13.3217 -13.3002  -0.5526   1.3684   4.7190   6.1513

          k = 0.5833-0.0833 0.5833 ( 57236 PWs)   bands (ev):

   -13.8425 -13.8232 -13.6951 -13.6234 -13.5975 -13.5110 -13.5077 -13.4613
   -13.3203 -13.3036  -0.8042   1.7059   4.6667   6.4070

          k = 0.5000 0.0000 0.5000 ( 57231 PWs)   bands (ev):

   -13.8330 -13.8210 -13.7068 -13.6475 -13.6100 -13.5023 -13.4720 -13.4571
   -13.3227 -13.3158  -1.2396   2.3268   4.8984   6.7402

          k = 0.0000 0.6667 0.0000 ( 57190 PWs)   bands (ev):

   -13.8134 -13.8134 -13.7584 -13.6295 -13.5841 -13.5639 -13.4668 -13.3867
   -13.3358 -13.3358  -1.3128   2.5554   5.8477   5.8477

          k =-0.0833 0.7500-0.0833 ( 57163 PWs)   bands (ev):

   -13.8238 -13.8185 -13.7377 -13.6104 -13.6063 -13.5423 -13.4862 -13.4101
   -13.3279 -13.3222  -0.9152   1.9370   5.4894   5.7148

          k = 0.8333-0.1667 0.8333 ( 57218 PWs)   bands (ev):

   -13.8372 -13.8225 -13.7092 -13.6133 -13.5915 -13.5339 -13.5069 -13.4407
   -13.3218 -13.3069  -0.4629   1.3458   4.9841   5.7110

          k = 0.7500-0.0833 0.7500 ( 57237 PWs)   bands (ev):

   -13.8467 -13.8249 -13.6904 -13.5959 -13.5759 -13.5489 -13.5253 -13.4601
   -13.3182 -13.2968  -0.1629   1.0063   4.5862   5.8364

          k = 0.6667-0.0000 0.6667 ( 57225 PWs)   bands (ev):

   -13.8489 -13.8253 -13.6873 -13.5853 -13.5772 -13.5555 -13.5276 -13.4638
   -13.3177 -13.2953  -0.3749   1.2465   4.4448   6.0787

          k = 0.0000 0.8333 0.0000 ( 57178 PWs)   bands (ev):

   -13.8221 -13.8221 -13.7285 -13.6386 -13.5899 -13.5121 -13.5057 -13.4200
   -13.3223 -13.3223  -0.5380   1.4186   5.5529   5.5529

          k = 0.9167-0.0833 0.9167 ( 57202 PWs)   bands (ev):

   -13.8296 -13.8245 -13.7034 -13.6571 -13.5694 -13.5268 -13.4933 -13.4465
   -13.3186 -13.3136  -0.0814   0.8827   5.2674   5.5192

          k = 0.8333 0.0000 0.8333 ( 57240 PWs)   bands (ev):

   -13.8404 -13.8255 -13.6867 -13.6429 -13.5554 -13.5428 -13.5054 -13.4636
   -13.3172 -13.3026   0.2110   0.5961   4.8371   5.6169

          k = 0.0000-1.0000 0.0000 ( 57162 PWs)   bands (ev):

   -13.8251 -13.8251 -13.6878 -13.6878 -13.5477 -13.5477 -13.4630 -13.4630
   -13.3175 -13.3175   0.3793   0.3793   5.4532   5.4532

          k =-0.1667 0.3333 0.0000 ( 57212 PWs)   bands (ev):

   -13.7991 -13.7924 -13.7665 -13.6847 -13.6601 -13.4701 -13.4212 -13.3881
   -13.3685 -13.3473  -2.2901   4.6084   6.5840   7.2621

          k =-0.2500 0.4167-0.0833 ( 57188 PWs)   bands (ev):

   -13.8101 -13.8035 -13.7522 -13.6705 -13.6415 -13.4872 -13.4358 -13.4053
   -13.3518 -13.3363  -1.9683   3.6499   6.0737   7.0187

          k =-0.3333 0.5000-0.1667 ( 57195 PWs)   bands (ev):

   -13.8203 -13.8112 -13.7358 -13.6568 -13.6289 -13.4959 -13.4485 -13.4273
   -13.3388 -13.3269  -1.5528   2.6853   5.7625   6.7449

          k = 0.5833-0.4167 0.7500 ( 57218 PWs)   bands (ev):

   -13.8274 -13.8152 -13.7227 -13.6445 -13.6259 -13.4940 -13.4617 -13.4446
   -13.3319 -13.3198  -1.1265   1.9010   5.5970   6.5473

          k = 0.5000-0.3333 0.6667 ( 57208 PWs)   bands (ev):

   -13.8299 -13.8164 -13.7177 -13.6367 -13.6289 -13.4869 -13.4734 -13.4498
   -13.3299 -13.3172  -0.9140   1.5653   5.5455   6.4761

          k =-0.1667 0.5000 0.0000 ( 57178 PWs)   bands (ev):

   -13.8092 -13.8063 -13.7598 -13.6619 -13.6181 -13.5211 -13.4374 -13.3915
   -13.3485 -13.3389  -1.8497   3.5184   5.9871   6.4992

          k =-0.2500 0.5833-0.0833 ( 57164 PWs)   bands (ev):

   -13.8226 -13.8143 -13.7383 -13.6460 -13.6016 -13.5363 -13.4545 -13.4156
   -13.3353 -13.3248  -1.4598   2.7164   5.5156   6.2742

          k = 0.6667-0.3333 0.8333 ( 57191 PWs)   bands (ev):

   -13.8343 -13.8192 -13.7162 -13.6306 -13.5961 -13.5384 -13.4726 -13.4399
   -13.3275 -13.3117  -1.0179   1.9601   5.1779   6.1149

          k = 0.5833-0.2500 0.7500 ( 57216 PWs)   bands (ev):

   -13.8403 -13.8222 -13.7013 -13.6190 -13.6013 -13.5282 -13.4896 -13.4555
   -13.3229 -13.3050  -0.6941   1.4854   4.9676   6.0996

          k = 0.5000-0.1667 0.6667 ( 57208 PWs)   bands (ev):

   -13.8396 -13.8230 -13.6988 -13.6260 -13.6022 -13.5192 -13.4889 -13.4600
   -13.3214 -13.3064  -0.7830   1.6111   4.9021   6.2329

          k = 0.4167-0.0833 0.5833 ( 57212 PWs)   bands (ev):

   -13.8321 -13.8215 -13.7103 -13.6433 -13.6059 -13.5172 -13.4630 -13.4553
   -13.3233 -13.3159  -1.1834   2.2193   5.0226   6.4842

          k = 0.3333 0.0000 0.5000 ( 57201 PWs)   bands (ev):

   -13.8191 -13.8169 -13.7312 -13.6582 -13.6209 -13.5059 -13.4483 -13.4295
   -13.3330 -13.3279  -1.6153   2.9658   5.3941   6.7897

          k =-0.1667 0.6667-0.0000 ( 57181 PWs)   bands (ev):

   -13.8193 -13.8190 -13.7431 -13.6295 -13.5749 -13.5705 -13.4683 -13.4055
   -13.3297 -13.3278  -1.2451   2.4325   5.5515   5.8826

          k = 0.7500-0.2500 0.9167 ( 57188 PWs)   bands (ev):

   -13.8334 -13.8237 -13.7156 -13.6116 -13.5875 -13.5565 -13.4882 -13.4350
   -13.3219 -13.3119  -0.8058   1.7838   5.1153   5.7201

          k = 0.6667-0.1667 0.8333 ( 57210 PWs)   bands (ev):

   -13.8438 -13.8267 -13.6920 -13.5964 -13.5830 -13.5571 -13.5082 -13.4590
   -13.3174 -13.3002  -0.4039   1.2714   4.7386   5.7217

          k = 0.5833-0.0833 0.7500 ( 57227 PWs)   bands (ev):

   -13.8474 -13.8277 -13.6833 -13.5951 -13.5738 -13.5577 -13.5190 -13.4674
   -13.3157 -13.2968  -0.3734   1.2384   4.5426   5.8769

          k = 0.5000 0.0000 0.6667 ( 57228 PWs)   bands (ev):

   -13.8430 -13.8263 -13.6900 -13.6205 -13.5849 -13.5370 -13.4989 -13.4647
   -13.3172 -13.3027  -0.7469   1.6872   4.6138   6.1517

          k = 0.8333-0.1667 1.0000 ( 57185 PWs)   bands (ev):

   -13.8275 -13.8272 -13.7144 -13.6275 -13.5906 -13.5214 -13.5066 -13.4347
   -13.3170 -13.3168  -0.4903   1.3795   5.3101   5.4708

          k = 0.7500-0.0833 0.9167 ( 57231 PWs)   bands (ev):

   -13.8393 -13.8294 -13.6850 -13.6322 -13.5715 -13.5282 -13.5149 -13.4644
   -13.3138 -13.3039  -0.0405   0.8782   4.9038   5.4357

          k = 0.6667 0.0000 0.8333 ( 57227 PWs)   bands (ev):

   -13.8472 -13.8296 -13.6765 -13.6038 -13.5663 -13.5394 -13.5384 -13.4723
   -13.3132 -13.2961   0.0245   0.8257   4.5731   5.5934

          k =-0.1667-1.0000-0.0000 ( 57218 PWs)   bands (ev):

   -13.8303 -13.8303 -13.6750 -13.6750 -13.5485 -13.5485 -13.4748 -13.4748
   -13.3125 -13.3125   0.3939   0.3939   5.2802   5.2802

          k = 0.6667-0.3333 1.0000 ( 57192 PWs)   bands (ev):

   -13.8314 -13.8257 -13.7121 -13.6300 -13.5821 -13.5540 -13.4729 -13.4433
   -13.3192 -13.3160  -1.0491   2.1101   5.0254   6.0022

          k = 0.5833-0.2500 0.9167 ( 57213 PWs)   bands (ev):

   -13.8416 -13.8295 -13.6884 -13.6127 -13.5736 -13.5595 -13.4967 -13.4647
   -13.3147 -13.3033  -0.6096   1.5236   4.7518   5.7563

          k = 0.5000-0.1667 0.8333 ( 57226 PWs)   bands (ev):

   -13.8454 -13.8305 -13.6788 -13.6030 -13.5724 -13.5590 -13.5107 -13.4719
   -13.3133 -13.2987  -0.3719   1.2303   4.6677   5.6616

          k = 0.6667-0.1667 1.0000 ( 57198 PWs)   bands (ev):

   -13.8384 -13.8341 -13.6843 -13.6024 -13.5931 -13.5398 -13.5107 -13.4654
   -13.3096 -13.3057  -0.3583   1.2579   4.8826   5.3720

          k = 0.5833-0.0833 0.9167 ( 57215 PWs)   bands (ev):

   -13.8453 -13.8363 -13.6609 -13.6039 -13.5766 -13.5397 -13.5295 -13.4857
   -13.3068 -13.2979   0.0037   0.8703   4.6834   5.2575

          k = 0.5000 0.0000 0.8333 ( 57221 PWs)   bands (ev):

   -13.8465 -13.8349 -13.6656 -13.5885 -13.5844 -13.5495 -13.5267 -13.4815
   -13.3084 -13.2972  -0.1733   1.0610   4.5941   5.4247

          k =-0.3333-1.0000 0.0000 ( 57216 PWs)   bands (ev):

   -13.8392 -13.8392 -13.6469 -13.6469 -13.5521 -13.5521 -13.4993 -13.4993
   -13.3038 -13.3038   0.4239   0.4239   4.9931   4.9931

          k =-0.5000-1.0000 0.0000 ( 57216 PWs)   bands (ev):

   -13.8430 -13.8430 -13.6292 -13.6292 -13.5570 -13.5570 -13.5120 -13.5120
   -13.3000 -13.3000   0.4394   0.4394   4.8690   4.8690

     highest occupied level (ev):     8.0245

!    total energy              =    -325.65148198 Ry
     estimated scf accuracy    <       0.00000002 Ry

     The total energy is the sum of the following terms:
     one-electron contribution =    -150.92269653 Ry
     hartree contribution      =      93.15491873 Ry
     xc contribution           =     -95.22427382 Ry
     ewald contribution        =    -172.65943036 Ry

     convergence has been achieved in   7 iterations

     Writing all to output data dir ./alpha-sn-scf/alphatin.save/ :
     XML data file, charge density, pseudopotentials, collected wavefunctions

     init_run     :      1.66s CPU      1.77s WALL (       1 calls)
     electrons    :     14.11s CPU     14.42s WALL (       1 calls)

     Called by init_run:
     wfcinit      :      0.65s CPU      0.67s WALL (       1 calls)
     potinit      :      0.06s CPU      0.09s WALL (       1 calls)
     hinit0       :      0.49s CPU      0.50s WALL (       1 calls)

     Called by electrons:
     c_bands      :     11.35s CPU     11.50s WALL (       8 calls)
     sum_band     :      2.16s CPU      2.20s WALL (       8 calls)
     v_of_rho     :      0.39s CPU      0.43s WALL (       8 calls)
     newd         :      0.18s CPU      0.20s WALL (       8 calls)
     mix_rho      :      0.05s CPU      0.06s WALL (       8 calls)

     Called by c_bands:
     init_us_2    :      0.27s CPU      0.28s WALL (     306 calls)
     cegterg      :     10.69s CPU     10.78s WALL (     144 calls)

     Called by *egterg:
     cdiaghg      :      0.25s CPU      0.25s WALL (     658 calls)
     h_psi        :      9.73s CPU      9.82s WALL (     694 calls)
     s_psi        :      0.19s CPU      0.19s WALL (     694 calls)
     g_psi        :      0.03s CPU      0.03s WALL (     532 calls)

     Called by h_psi:
     h_psi:calbec :      0.46s CPU      0.46s WALL (     694 calls)
     vloc_psi     :      8.99s CPU      9.07s WALL (     694 calls)
     add_vuspsi   :      0.22s CPU      0.22s WALL (     694 calls)

     General routines
     calbec       :      0.53s CPU      0.53s WALL (     838 calls)
     fft          :      0.66s CPU      0.70s WALL (      89 calls)
     ffts         :      0.03s CPU      0.03s WALL (       8 calls)
     fftw         :      9.29s CPU      9.37s WALL (   13216 calls)

     Parallel routines

     PWSCF        :     16.24s CPU     19.41s WALL


   This run was terminated on:  16: 3:55   4Feb2026            

=------------------------------------------------------------------------------=
   JOB DONE.
=------------------------------------------------------------------------------=
