
     Program PWSCF v.7.3.1 starts on  5Feb2026 at 16: 4:59 

     This program is part of the open-source Quantum ESPRESSO suite
     for quantum simulation of materials; please cite
         "P. Giannozzi et al., J. Phys.:Condens. Matter 21 395502 (2009);
         "P. Giannozzi et al., J. Phys.:Condens. Matter 29 465901 (2017);
         "P. Giannozzi et al., J. Chem. Phys. 152 154105 (2020);
          URL http://www.quantum-espresso.org", 
     in publications or presentations arising from this work. More details at
     http://www.quantum-espresso.org/quote

     Parallel version (MPI), running on   128 processors

     MPI processes distributed on     1 nodes
     241414 MiB available memory on the printing compute node when the environment starts

     Waiting for input...
     Reading input from standard input
     Message from routine read_cards :
     DEPRECATED: no units specified in ATOMIC_POSITIONS card
     Message from routine read_cards :
     ATOMIC_POSITIONS: units set to alat

     Current dimensions of program PWSCF are:
     Max number of different atomic species (ntypx) = 10
     Max number of k-points (npk) =  40000
     Max angular momentum in pseudopotentials (lmaxx) =  4

     K-points division:     npool     =       8
     R & G space division:  proc/nbgrp/npool/nimage =      16
     Subspace diagonalization in iterative solution of the eigenvalue problem:
     a serial algorithm will be used


     Parallelization info
     --------------------
     sticks:   dense  smooth     PW     G-vecs:    dense   smooth      PW
     Min          31      31     10                  480      480      84
     Max          32      32     11                  485      485      86
     Sum         511     511    163                 7727     7727    1363

     Using Slab Decomposition



     bravais-lattice index     =            2
     lattice parameter (alat)  =      12.2300  a.u.
     unit-cell volume          =     457.3191 (a.u.)^3
     number of atoms/cell      =            2
     number of atomic types    =            1
     number of electrons       =        28.00
     number of Kohn-Sham states=           14
     kinetic-energy cutoff     =      25.0000  Ry
     charge density cutoff     =     100.0000  Ry
     scf convergence threshold =      1.0E-07
     mixing beta               =       0.7000
     number of iterations used =            8  plain     mixing
     Exchange-correlation=  SLA  PW   GGX  GGC
                           (   1   4   2   2   0   0   0)

     celldm(1)=  12.230000  celldm(2)=   0.000000  celldm(3)=   0.000000
     celldm(4)=   0.000000  celldm(5)=   0.000000  celldm(6)=   0.000000

     crystal axes: (cart. coord. in units of alat)
               a(1) = (  -0.500000   0.000000   0.500000 )  
               a(2) = (   0.000000   0.500000   0.500000 )  
               a(3) = (  -0.500000   0.500000   0.000000 )  

     reciprocal axes: (cart. coord. in units 2 pi/alat)
               b(1) = ( -1.000000 -1.000000  1.000000 )  
               b(2) = (  1.000000  1.000000  1.000000 )  
               b(3) = ( -1.000000  1.000000 -1.000000 )  


     PseudoPot. # 1 for Sn read from file:
     ./Sn.pw91-n-van.UPF
     MD5 check sum: a38d2a872edd1a4efd76c0a1a38f7031
     Pseudo is Ultrasoft + core correction, Zval = 14.0
     Generated by new atomic code, or converted to UPF format
     Using radial grid of  891 points,  6 beta functions with: 
                l(1) =   0
                l(2) =   0
                l(3) =   1
                l(4) =   1
                l(5) =   2
                l(6) =   2
     Q(r) pseudized with  8 coefficients,  rinner =    1.100   1.100   1.100
                                                       1.100   1.100

     atomic species   valence    mass     pseudopotential
     Sn               14.00   118.70000     Sn( 1.00)

     48 Sym. Ops., with inversion, found (24 have fractional translation)



   Cartesian axes

     site n.     atom                  positions (alat units)
         1        Sn     tau(   1) = (   0.0000000   0.0000000   0.0000000  )
         2        Sn     tau(   2) = (   0.2500000   0.2500000   0.2500000  )

     number of k points=     8
                       cart. coord. in units 2pi/alat
        k(    1) = (   0.0000000   0.0000000   0.0000000), wk =   0.0312500
        k(    2) = (  -0.2500000   0.2500000  -0.2500000), wk =   0.2500000
        k(    3) = (   0.5000000  -0.5000000   0.5000000), wk =   0.1250000
        k(    4) = (   0.0000000   0.5000000   0.0000000), wk =   0.1875000
        k(    5) = (   0.7500000  -0.2500000   0.7500000), wk =   0.7500000
        k(    6) = (   0.5000000   0.0000000   0.5000000), wk =   0.3750000
        k(    7) = (   0.0000000  -1.0000000   0.0000000), wk =   0.0937500
        k(    8) = (  -0.5000000  -1.0000000   0.0000000), wk =   0.1875000

     Dense  grid:     7727 G-vectors     FFT dimensions: (  32,  32,  32)

     Estimated max dynamical RAM per process >       1.37 MB

     Estimated total dynamical RAM >     162.17 MB

     Check: negative core charge=   -0.000002

     Initial potential from superposition of free atoms

     starting charge      27.9964, renormalised to      28.0000
     Starting wfcs are   18 randomized atomic wfcs

     total cpu time spent up to now is        0.6 secs

     per-process dynamical memory:     8.7 Mb

     Self-consistent Calculation

     iteration #  1     ecut=    25.00 Ry     beta= 0.70
     Davidson diagonalization with overlap
     ethr =  1.00E-02,  avg # of iterations =  1.4

     Threshold (ethr) on eigenvalues was too large:
     Diagonalizing with lowered threshold

     Davidson diagonalization with overlap
     ethr =  8.66E-05,  avg # of iterations =  2.1

     negative rho (up, down):  3.522E-05 0.000E+00

     total cpu time spent up to now is        0.6 secs

     total energy              =    -325.57102303 Ry
     estimated scf accuracy    <       0.02923383 Ry

     iteration #  2     ecut=    25.00 Ry     beta= 0.70
     Davidson diagonalization with overlap
     ethr =  1.04E-04,  avg # of iterations =  1.0

     negative rho (up, down):  1.629E-04 0.000E+00

     total cpu time spent up to now is        0.6 secs

     total energy              =    -325.57207423 Ry
     estimated scf accuracy    <       0.00166914 Ry

     iteration #  3     ecut=    25.00 Ry     beta= 0.70
     Davidson diagonalization with overlap
     ethr =  5.96E-06,  avg # of iterations =  2.1

     negative rho (up, down):  1.908E-04 0.000E+00

     total cpu time spent up to now is        0.6 secs

     total energy              =    -325.57221627 Ry
     estimated scf accuracy    <       0.00004317 Ry

     iteration #  4     ecut=    25.00 Ry     beta= 0.70
     Davidson diagonalization with overlap
     ethr =  1.54E-07,  avg # of iterations =  3.4

     negative rho (up, down):  2.087E-04 0.000E+00

     total cpu time spent up to now is        0.6 secs

     total energy              =    -325.57222959 Ry
     estimated scf accuracy    <       0.00000350 Ry

     iteration #  5     ecut=    25.00 Ry     beta= 0.70
     Davidson diagonalization with overlap
     ethr =  1.25E-08,  avg # of iterations =  3.8

     negative rho (up, down):  2.067E-04 0.000E+00

     total cpu time spent up to now is        0.7 secs

     total energy              =    -325.57223031 Ry
     estimated scf accuracy    <       0.00000036 Ry

     iteration #  6     ecut=    25.00 Ry     beta= 0.70
     Davidson diagonalization with overlap
     ethr =  1.29E-09,  avg # of iterations =  2.4

     negative rho (up, down):  2.075E-04 0.000E+00

     total cpu time spent up to now is        0.7 secs

     total energy              =    -325.57223037 Ry
     estimated scf accuracy    <       0.00000010 Ry

     iteration #  7     ecut=    25.00 Ry     beta= 0.70
     Davidson diagonalization with overlap
     ethr =  3.61E-10,  avg # of iterations =  2.0

     negative rho (up, down):  2.076E-04 0.000E+00

     total cpu time spent up to now is        0.7 secs

     End of self-consistent calculation

          k = 0.0000 0.0000 0.0000 (   941 PWs)   bands (ev):

   -13.6993 -13.6993 -13.6993 -13.6418 -13.6418 -13.3309 -13.3309 -13.3309
   -13.3124 -13.3124  -2.6964   7.3318   8.0681   8.0681

          k =-0.2500 0.2500-0.2500 (   959 PWs)   bands (ev):

   -13.7283 -13.7283 -13.6900 -13.5992 -13.5992 -13.3692 -13.3692 -13.3468
   -13.2833 -13.2833  -2.1049   3.9209   7.3050   7.3050

          k = 0.5000-0.5000 0.5000 (   960 PWs)   bands (ev):

   -13.7435 -13.7435 -13.6735 -13.5722 -13.5722 -13.3822 -13.3822 -13.3661
   -13.2693 -13.2693  -1.0600   1.6403   6.8476   6.8476

          k = 0.0000 0.5000 0.0000 (   982 PWs)   bands (ev):

   -13.7352 -13.7352 -13.7079 -13.5948 -13.5454 -13.4606 -13.3609 -13.2988
   -13.2933 -13.2933  -1.8880   3.8043   6.3619   6.3619

          k = 0.7500-0.2500 0.7500 (   971 PWs)   bands (ev):

   -13.7696 -13.7501 -13.6420 -13.5380 -13.5128 -13.4861 -13.4138 -13.3730
   -13.2615 -13.2407  -0.7119   1.6752   5.0294   6.0447

          k = 0.5000 0.0000 0.5000 (   975 PWs)   bands (ev):

   -13.7655 -13.7509 -13.6383 -13.5747 -13.5363 -13.4334 -13.4087 -13.3833
   -13.2587 -13.2500  -1.1988   2.3671   4.9407   6.7793

          k = 0.0000-1.0000 0.0000 (   982 PWs)   bands (ev):

   -13.7579 -13.7579 -13.6186 -13.6186 -13.4781 -13.4781 -13.3945 -13.3945
   -13.2553 -13.2553   0.4198   0.4198   5.4907   5.4907

          k =-0.5000-1.0000 0.0000 (   952 PWs)   bands (ev):

   -13.7682 -13.7682 -13.5582 -13.5582 -13.4824 -13.4824 -13.4329 -13.4329
   -13.2328 -13.2328   0.4797   0.4797   4.9104   4.9104

     highest occupied level (ev):     8.0681

!    total energy              =    -325.57223038 Ry
     estimated scf accuracy    <          2.0E-09 Ry

     The total energy is the sum of the following terms:
     one-electron contribution =    -150.90617918 Ry
     hartree contribution      =      93.21636446 Ry
     xc contribution           =     -95.22298529 Ry
     ewald contribution        =    -172.65943037 Ry

     convergence has been achieved in   7 iterations

     Writing all to output data dir ./alpha-sn-scf/alphatin.save/ :
     XML data file, charge density, pseudopotentials, collected wavefunctions

     init_run     :      0.19s CPU      0.26s WALL (       1 calls)
     electrons    :      0.09s CPU      0.13s WALL (       1 calls)

     Called by init_run:
     wfcinit      :      0.02s CPU      0.03s WALL (       1 calls)
     potinit      :      0.01s CPU      0.02s WALL (       1 calls)
     hinit0       :      0.16s CPU      0.18s WALL (       1 calls)

     Called by electrons:
     c_bands      :      0.04s CPU      0.05s WALL (       8 calls)
     sum_band     :      0.02s CPU      0.03s WALL (       8 calls)
     v_of_rho     :      0.02s CPU      0.03s WALL (       8 calls)
     newd         :      0.00s CPU      0.01s WALL (       8 calls)
     mix_rho      :      0.00s CPU      0.00s WALL (       8 calls)

     Called by c_bands:
     init_us_2    :      0.00s CPU      0.00s WALL (      17 calls)
     cegterg      :      0.04s CPU      0.04s WALL (       8 calls)

     Called by *egterg:
     cdiaghg      :      0.01s CPU      0.01s WALL (      30 calls)
     h_psi        :      0.04s CPU      0.05s WALL (      32 calls)
     s_psi        :      0.00s CPU      0.00s WALL (      32 calls)
     g_psi        :      0.00s CPU      0.00s WALL (      23 calls)

     Called by h_psi:
     h_psi:calbec :      0.00s CPU      0.00s WALL (      32 calls)
     vloc_psi     :      0.04s CPU      0.04s WALL (      32 calls)
     add_vuspsi   :      0.00s CPU      0.00s WALL (      32 calls)

     General routines
     calbec       :      0.00s CPU      0.00s WALL (      40 calls)
     fft          :      0.15s CPU      0.16s WALL (      89 calls)
     ffts         :      0.00s CPU      0.00s WALL (       8 calls)
     fftw         :      0.04s CPU      0.04s WALL (     696 calls)

     Parallel routines

     PWSCF        :      0.51s CPU      0.78s WALL


   This run was terminated on:  16: 5: 0   5Feb2026            

=------------------------------------------------------------------------------=
   JOB DONE.
=------------------------------------------------------------------------------=
