
     Program PWSCF v.7.3.1 starts on  5Feb2026 at 16:33:25 

     This program is part of the open-source Quantum ESPRESSO suite
     for quantum simulation of materials; please cite
         "P. Giannozzi et al., J. Phys.:Condens. Matter 21 395502 (2009);
         "P. Giannozzi et al., J. Phys.:Condens. Matter 29 465901 (2017);
         "P. Giannozzi et al., J. Chem. Phys. 152 154105 (2020);
          URL http://www.quantum-espresso.org", 
     in publications or presentations arising from this work. More details at
     http://www.quantum-espresso.org/quote

     Parallel version (MPI), running on   128 processors

     MPI processes distributed on     1 nodes
     241301 MiB available memory on the printing compute node when the environment starts

     Waiting for input...
     Reading input from standard input
     Message from routine read_cards :
     DEPRECATED: no units specified in ATOMIC_POSITIONS card
     Message from routine read_cards :
     ATOMIC_POSITIONS: units set to alat

     Current dimensions of program PWSCF are:
     Max number of different atomic species (ntypx) = 10
     Max number of k-points (npk) =  40000
     Max angular momentum in pseudopotentials (lmaxx) =  4

     K-points division:     npool     =       4
     R & G space division:  proc/nbgrp/npool/nimage =      32
     Subspace diagonalization in iterative solution of the eigenvalue problem:
     a serial algorithm will be used


     Parallelization info
     --------------------
     sticks:   dense  smooth     PW     G-vecs:    dense   smooth      PW
     Min         118     118     32                 4793     4793     674
     Max         119     119     33                 4797     4797     677
     Sum        3793    3793   1027               153421   153421   21595

     Using Slab Decomposition



     bravais-lattice index     =            2
     lattice parameter (alat)  =      12.2300  a.u.
     unit-cell volume          =     457.3191 (a.u.)^3
     number of atoms/cell      =            2
     number of atomic types    =            1
     number of electrons       =        28.00
     number of Kohn-Sham states=           14
     kinetic-energy cutoff     =     183.0000  Ry
     charge density cutoff     =     732.0000  Ry
     scf convergence threshold =      1.0E-07
     mixing beta               =       0.7000
     number of iterations used =            8  plain     mixing
     Exchange-correlation=  SLA  PW   GGX  GGC
                           (   1   4   2   2   0   0   0)

     celldm(1)=  12.230000  celldm(2)=   0.000000  celldm(3)=   0.000000
     celldm(4)=   0.000000  celldm(5)=   0.000000  celldm(6)=   0.000000

     crystal axes: (cart. coord. in units of alat)
               a(1) = (  -0.500000   0.000000   0.500000 )  
               a(2) = (   0.000000   0.500000   0.500000 )  
               a(3) = (  -0.500000   0.500000   0.000000 )  

     reciprocal axes: (cart. coord. in units 2 pi/alat)
               b(1) = ( -1.000000 -1.000000  1.000000 )  
               b(2) = (  1.000000  1.000000  1.000000 )  
               b(3) = ( -1.000000  1.000000 -1.000000 )  


     PseudoPot. # 1 for Sn read from file:
     ./Sn.pw91-n-van.UPF
     MD5 check sum: a38d2a872edd1a4efd76c0a1a38f7031
     Pseudo is Ultrasoft + core correction, Zval = 14.0
     Generated by new atomic code, or converted to UPF format
     Using radial grid of  891 points,  6 beta functions with: 
                l(1) =   0
                l(2) =   0
                l(3) =   1
                l(4) =   1
                l(5) =   2
                l(6) =   2
     Q(r) pseudized with  8 coefficients,  rinner =    1.100   1.100   1.100
                                                       1.100   1.100

     atomic species   valence    mass     pseudopotential
     Sn               14.00   118.70000     Sn( 1.00)

     48 Sym. Ops., with inversion, found (24 have fractional translation)



   Cartesian axes

     site n.     atom                  positions (alat units)
         1        Sn     tau(   1) = (   0.0000000   0.0000000   0.0000000  )
         2        Sn     tau(   2) = (   0.2500000   0.2500000   0.2500000  )

     number of k points=     8
                       cart. coord. in units 2pi/alat
        k(    1) = (   0.0000000   0.0000000   0.0000000), wk =   0.0312500
        k(    2) = (  -0.2500000   0.2500000  -0.2500000), wk =   0.2500000
        k(    3) = (   0.5000000  -0.5000000   0.5000000), wk =   0.1250000
        k(    4) = (   0.0000000   0.5000000   0.0000000), wk =   0.1875000
        k(    5) = (   0.7500000  -0.2500000   0.7500000), wk =   0.7500000
        k(    6) = (   0.5000000   0.0000000   0.5000000), wk =   0.3750000
        k(    7) = (   0.0000000  -1.0000000   0.0000000), wk =   0.0937500
        k(    8) = (  -0.5000000  -1.0000000   0.0000000), wk =   0.1875000

     Dense  grid:   153421 G-vectors     FFT dimensions: (  80,  80,  80)

     Estimated max dynamical RAM per process >       9.69 MB

     Estimated total dynamical RAM >       1.10 GB

     Initial potential from superposition of free atoms

     starting charge      27.9964, renormalised to      28.0000
     Starting wfcs are   18 randomized atomic wfcs

     total cpu time spent up to now is        1.1 secs

     per-process dynamical memory:    15.8 Mb

     Self-consistent Calculation

     iteration #  1     ecut=   183.00 Ry     beta= 0.70
     Davidson diagonalization with overlap
     ethr =  1.00E-02,  avg # of iterations =  2.0

     Threshold (ethr) on eigenvalues was too large:
     Diagonalizing with lowered threshold

     Davidson diagonalization with overlap
     ethr =  8.65E-05,  avg # of iterations =  2.0

     total cpu time spent up to now is        1.3 secs

     total energy              =    -325.62519734 Ry
     estimated scf accuracy    <       0.02841373 Ry

     iteration #  2     ecut=   183.00 Ry     beta= 0.70
     Davidson diagonalization with overlap
     ethr =  1.01E-04,  avg # of iterations =  1.6

     total cpu time spent up to now is        1.4 secs

     total energy              =    -325.63054505 Ry
     estimated scf accuracy    <       0.00179085 Ry

     iteration #  3     ecut=   183.00 Ry     beta= 0.70
     Davidson diagonalization with overlap
     ethr =  6.40E-06,  avg # of iterations =  2.2

     negative rho (up, down):  4.440E-07 0.000E+00

     total cpu time spent up to now is        1.5 secs

     total energy              =    -325.63081658 Ry
     estimated scf accuracy    <       0.00007682 Ry

     iteration #  4     ecut=   183.00 Ry     beta= 0.70
     Davidson diagonalization with overlap
     ethr =  2.74E-07,  avg # of iterations =  3.0

     negative rho (up, down):  1.835E-06 0.000E+00

     total cpu time spent up to now is        1.6 secs

     total energy              =    -325.63084885 Ry
     estimated scf accuracy    <       0.00000675 Ry

     iteration #  5     ecut=   183.00 Ry     beta= 0.70
     Davidson diagonalization with overlap
     ethr =  2.41E-08,  avg # of iterations =  3.6

     negative rho (up, down):  1.745E-06 0.000E+00

     total cpu time spent up to now is        1.8 secs

     total energy              =    -325.63084982 Ry
     estimated scf accuracy    <       0.00000152 Ry

     iteration #  6     ecut=   183.00 Ry     beta= 0.70
     Davidson diagonalization with overlap
     ethr =  5.41E-09,  avg # of iterations =  2.0

     negative rho (up, down):  1.721E-06 0.000E+00

     total cpu time spent up to now is        1.9 secs

     End of self-consistent calculation

          k = 0.0000 0.0000 0.0000 ( 19195 PWs)   bands (ev):

   -13.7148 -13.7148 -13.7148 -13.6558 -13.6558 -13.3385 -13.3385 -13.3385
   -13.3296 -13.3296  -2.7012   7.3358   8.0625   8.0625

          k =-0.2500 0.2500-0.2500 ( 19137 PWs)   bands (ev):

   -13.7412 -13.7412 -13.7017 -13.6149 -13.6149 -13.3840 -13.3840 -13.3552
   -13.2925 -13.2925  -2.1091   3.9176   7.2995   7.2995

          k = 0.5000-0.5000 0.5000 ( 19182 PWs)   bands (ev):

   -13.7520 -13.7520 -13.6877 -13.5937 -13.5937 -13.4003 -13.4003 -13.3730
   -13.2807 -13.2807  -1.0628   1.6343   6.8424   6.8424

          k = 0.0000 0.5000 0.0000 ( 19118 PWs)   bands (ev):

   -13.7431 -13.7431 -13.7189 -13.6070 -13.5573 -13.4709 -13.3764 -13.3082
   -13.2970 -13.2970  -1.8922   3.8036   6.3554   6.3554

          k = 0.7500-0.2500 0.7500 ( 19113 PWs)   bands (ev):

   -13.7818 -13.7613 -13.6550 -13.5561 -13.5271 -13.4989 -13.4313 -13.3827
   -13.2687 -13.2476  -0.7148   1.6725   5.0190   6.0383

          k = 0.5000 0.0000 0.5000 ( 19095 PWs)   bands (ev):

   -13.7752 -13.7633 -13.6489 -13.5907 -13.5530 -13.4452 -13.4142 -13.3999
   -13.2649 -13.2579  -1.2022   2.3649   4.9294   6.7737

          k = 0.0000-1.0000 0.0000 ( 19166 PWs)   bands (ev):

   -13.7672 -13.7672 -13.6307 -13.6307 -13.4908 -13.4908 -13.4055 -13.4055
   -13.2597 -13.2597   0.4173   0.4173   5.4839   5.4839

          k =-0.5000-1.0000 0.0000 ( 19112 PWs)   bands (ev):

   -13.7853 -13.7853 -13.5718 -13.5718 -13.5000 -13.5000 -13.4546 -13.4546
   -13.2421 -13.2421   0.4776   0.4776   4.8996   4.8996

     highest occupied level (ev):     8.0625

!    total energy              =    -325.63084992 Ry
     estimated scf accuracy    <       0.00000005 Ry

     The total energy is the sum of the following terms:
     one-electron contribution =    -150.99625818 Ry
     hartree contribution      =      93.25902978 Ry
     xc contribution           =     -95.23419116 Ry
     ewald contribution        =    -172.65943036 Ry

     convergence has been achieved in   6 iterations

     Writing all to output data dir ./alpha-sn-scf/alphatin.save/ :
     XML data file, charge density, pseudopotentials, collected wavefunctions

     init_run     :      0.74s CPU      0.82s WALL (       1 calls)
     electrons    :      0.71s CPU      0.84s WALL (       1 calls)

     Called by init_run:
     wfcinit      :      0.03s CPU      0.05s WALL (       1 calls)
     potinit      :      0.02s CPU      0.04s WALL (       1 calls)
     hinit0       :      0.59s CPU      0.60s WALL (       1 calls)

     Called by electrons:
     c_bands      :      0.37s CPU      0.38s WALL (       7 calls)
     sum_band     :      0.15s CPU      0.17s WALL (       7 calls)
     v_of_rho     :      0.11s CPU      0.12s WALL (       7 calls)
     newd         :      0.04s CPU      0.06s WALL (       7 calls)
     mix_rho      :      0.01s CPU      0.01s WALL (       7 calls)

     Called by c_bands:
     init_us_2    :      0.01s CPU      0.01s WALL (      30 calls)
     cegterg      :      0.34s CPU      0.35s WALL (      14 calls)

     Called by *egterg:
     cdiaghg      :      0.02s CPU      0.02s WALL (      52 calls)
     h_psi        :      0.31s CPU      0.33s WALL (      56 calls)
     s_psi        :      0.01s CPU      0.01s WALL (      56 calls)
     g_psi        :      0.00s CPU      0.00s WALL (      40 calls)

     Called by h_psi:
     h_psi:calbec :      0.01s CPU      0.01s WALL (      56 calls)
     vloc_psi     :      0.29s CPU      0.31s WALL (      56 calls)
     add_vuspsi   :      0.01s CPU      0.01s WALL (      56 calls)

     General routines
     calbec       :      0.01s CPU      0.01s WALL (      70 calls)
     fft          :      0.59s CPU      0.60s WALL (      78 calls)
     ffts         :      0.00s CPU      0.00s WALL (       7 calls)
     fftw         :      0.31s CPU      0.33s WALL (    1202 calls)

     Parallel routines

     PWSCF        :      1.71s CPU      2.16s WALL


   This run was terminated on:  16:33:27   5Feb2026            

=------------------------------------------------------------------------------=
   JOB DONE.
=------------------------------------------------------------------------------=
