
     Program PWSCF v.7.3.1 starts on  5Feb2026 at 16: 7:49 

     This program is part of the open-source Quantum ESPRESSO suite
     for quantum simulation of materials; please cite
         "P. Giannozzi et al., J. Phys.:Condens. Matter 21 395502 (2009);
         "P. Giannozzi et al., J. Phys.:Condens. Matter 29 465901 (2017);
         "P. Giannozzi et al., J. Chem. Phys. 152 154105 (2020);
          URL http://www.quantum-espresso.org", 
     in publications or presentations arising from this work. More details at
     http://www.quantum-espresso.org/quote

     Parallel version (MPI), running on   128 processors

     MPI processes distributed on     1 nodes
     241395 MiB available memory on the printing compute node when the environment starts

     Waiting for input...
     Reading input from standard input
     Message from routine read_cards :
     DEPRECATED: no units specified in ATOMIC_POSITIONS card
     Message from routine read_cards :
     ATOMIC_POSITIONS: units set to alat

     Current dimensions of program PWSCF are:
     Max number of different atomic species (ntypx) = 10
     Max number of k-points (npk) =  40000
     Max angular momentum in pseudopotentials (lmaxx) =  4

     K-points division:     npool     =       8
     R & G space division:  proc/nbgrp/npool/nimage =      16
     Subspace diagonalization in iterative solution of the eigenvalue problem:
     a serial algorithm will be used


     Parallelization info
     --------------------
     sticks:   dense  smooth     PW     G-vecs:    dense   smooth      PW
     Min          55      55     15                 1090     1090     168
     Max          56      56     16                 1091     1091     173
     Sum         889     889    253                17453    17453    2741

     Using Slab Decomposition



     bravais-lattice index     =            2
     lattice parameter (alat)  =      12.2300  a.u.
     unit-cell volume          =     457.3191 (a.u.)^3
     number of atoms/cell      =            2
     number of atomic types    =            1
     number of electrons       =        28.00
     number of Kohn-Sham states=           14
     kinetic-energy cutoff     =      43.0000  Ry
     charge density cutoff     =     172.0000  Ry
     scf convergence threshold =      1.0E-07
     mixing beta               =       0.7000
     number of iterations used =            8  plain     mixing
     Exchange-correlation=  SLA  PW   GGX  GGC
                           (   1   4   2   2   0   0   0)

     celldm(1)=  12.230000  celldm(2)=   0.000000  celldm(3)=   0.000000
     celldm(4)=   0.000000  celldm(5)=   0.000000  celldm(6)=   0.000000

     crystal axes: (cart. coord. in units of alat)
               a(1) = (  -0.500000   0.000000   0.500000 )  
               a(2) = (   0.000000   0.500000   0.500000 )  
               a(3) = (  -0.500000   0.500000   0.000000 )  

     reciprocal axes: (cart. coord. in units 2 pi/alat)
               b(1) = ( -1.000000 -1.000000  1.000000 )  
               b(2) = (  1.000000  1.000000  1.000000 )  
               b(3) = ( -1.000000  1.000000 -1.000000 )  


     PseudoPot. # 1 for Sn read from file:
     ./Sn.pw91-n-van.UPF
     MD5 check sum: a38d2a872edd1a4efd76c0a1a38f7031
     Pseudo is Ultrasoft + core correction, Zval = 14.0
     Generated by new atomic code, or converted to UPF format
     Using radial grid of  891 points,  6 beta functions with: 
                l(1) =   0
                l(2) =   0
                l(3) =   1
                l(4) =   1
                l(5) =   2
                l(6) =   2
     Q(r) pseudized with  8 coefficients,  rinner =    1.100   1.100   1.100
                                                       1.100   1.100

     atomic species   valence    mass     pseudopotential
     Sn               14.00   118.70000     Sn( 1.00)

     48 Sym. Ops., with inversion, found (24 have fractional translation)



   Cartesian axes

     site n.     atom                  positions (alat units)
         1        Sn     tau(   1) = (   0.0000000   0.0000000   0.0000000  )
         2        Sn     tau(   2) = (   0.2500000   0.2500000   0.2500000  )

     number of k points=     8
                       cart. coord. in units 2pi/alat
        k(    1) = (   0.0000000   0.0000000   0.0000000), wk =   0.0312500
        k(    2) = (  -0.2500000   0.2500000  -0.2500000), wk =   0.2500000
        k(    3) = (   0.5000000  -0.5000000   0.5000000), wk =   0.1250000
        k(    4) = (   0.0000000   0.5000000   0.0000000), wk =   0.1875000
        k(    5) = (   0.7500000  -0.2500000   0.7500000), wk =   0.7500000
        k(    6) = (   0.5000000   0.0000000   0.5000000), wk =   0.3750000
        k(    7) = (   0.0000000  -1.0000000   0.0000000), wk =   0.0937500
        k(    8) = (  -0.5000000  -1.0000000   0.0000000), wk =   0.1875000

     Dense  grid:    17453 G-vectors     FFT dimensions: (  40,  40,  40)

     Estimated max dynamical RAM per process >       2.35 MB

     Estimated total dynamical RAM >     270.34 MB

     Initial potential from superposition of free atoms

     starting charge      27.9964, renormalised to      28.0000
     Starting wfcs are   18 randomized atomic wfcs

     total cpu time spent up to now is        0.7 secs

     per-process dynamical memory:     9.9 Mb

     Self-consistent Calculation

     iteration #  1     ecut=    43.00 Ry     beta= 0.70
     Davidson diagonalization with overlap
     ethr =  1.00E-02,  avg # of iterations =  1.4

     Threshold (ethr) on eigenvalues was too large:
     Diagonalizing with lowered threshold

     Davidson diagonalization with overlap
     ethr =  8.36E-05,  avg # of iterations =  2.1

     negative rho (up, down):  5.029E-05 0.000E+00

     total cpu time spent up to now is        0.8 secs

     total energy              =    -325.60249163 Ry
     estimated scf accuracy    <       0.02870858 Ry

     iteration #  2     ecut=    43.00 Ry     beta= 0.70
     Davidson diagonalization with overlap
     ethr =  1.03E-04,  avg # of iterations =  1.0

     negative rho (up, down):  8.098E-05 0.000E+00

     total cpu time spent up to now is        0.8 secs

     total energy              =    -325.60354796 Ry
     estimated scf accuracy    <       0.00163404 Ry

     iteration #  3     ecut=    43.00 Ry     beta= 0.70
     Davidson diagonalization with overlap
     ethr =  5.84E-06,  avg # of iterations =  2.1

     negative rho (up, down):  9.241E-05 0.000E+00

     total cpu time spent up to now is        0.8 secs

     total energy              =    -325.60368405 Ry
     estimated scf accuracy    <       0.00003832 Ry

     iteration #  4     ecut=    43.00 Ry     beta= 0.70
     Davidson diagonalization with overlap
     ethr =  1.37E-07,  avg # of iterations =  3.4

     negative rho (up, down):  9.941E-05 0.000E+00

     total cpu time spent up to now is        0.8 secs

     total energy              =    -325.60369842 Ry
     estimated scf accuracy    <       0.00000324 Ry

     iteration #  5     ecut=    43.00 Ry     beta= 0.70
     Davidson diagonalization with overlap
     ethr =  1.16E-08,  avg # of iterations =  4.2

     negative rho (up, down):  9.859E-05 0.000E+00

     total cpu time spent up to now is        0.8 secs

     total energy              =    -325.60369913 Ry
     estimated scf accuracy    <       0.00000030 Ry

     iteration #  6     ecut=    43.00 Ry     beta= 0.70
     Davidson diagonalization with overlap
     ethr =  1.07E-09,  avg # of iterations =  2.4

     negative rho (up, down):  9.911E-05 0.000E+00

     total cpu time spent up to now is        0.9 secs

     End of self-consistent calculation

          k = 0.0000 0.0000 0.0000 (  2109 PWs)   bands (ev):

   -13.6979 -13.6979 -13.6979 -13.6393 -13.6393 -13.3209 -13.3209 -13.3209
   -13.3130 -13.3130  -2.6988   7.3357   8.0653   8.0653

          k =-0.2500 0.2500-0.2500 (  2172 PWs)   bands (ev):

   -13.7243 -13.7243 -13.6848 -13.5986 -13.5986 -13.3672 -13.3672 -13.3380
   -13.2754 -13.2754  -2.1069   3.9197   7.3021   7.3021

          k = 0.5000-0.5000 0.5000 (  2186 PWs)   bands (ev):

   -13.7349 -13.7349 -13.6709 -13.5774 -13.5774 -13.3835 -13.3835 -13.3557
   -13.2635 -13.2635  -1.0610   1.6372   6.8448   6.8448

          k = 0.0000 0.5000 0.0000 (  2181 PWs)   bands (ev):

   -13.7262 -13.7262 -13.7023 -13.5908 -13.5407 -13.4541 -13.3599 -13.2911
   -13.2799 -13.2799  -1.8899   3.8049   6.3582   6.3582

          k = 0.7500-0.2500 0.7500 (  2182 PWs)   bands (ev):

   -13.7650 -13.7444 -13.6383 -13.5398 -13.5104 -13.4821 -13.4148 -13.3657
   -13.2515 -13.2304  -0.7129   1.6744   5.0232   6.0410

          k = 0.5000 0.0000 0.5000 (  2181 PWs)   bands (ev):

   -13.7584 -13.7465 -13.6320 -13.5744 -13.5367 -13.4286 -13.3971 -13.3833
   -13.2477 -13.2407  -1.2002   2.3666   4.9340   6.7762

          k = 0.0000-1.0000 0.0000 (  2200 PWs)   bands (ev):

   -13.7504 -13.7504 -13.6141 -13.6141 -13.4744 -13.4744 -13.3886 -13.3886
   -13.2424 -13.2424   0.4190   0.4190   5.4866   5.4866

          k =-0.5000-1.0000 0.0000 (  2180 PWs)   bands (ev):

   -13.7685 -13.7685 -13.5550 -13.5550 -13.4835 -13.4835 -13.4380 -13.4380
   -13.2248 -13.2248   0.4792   0.4792   4.9039   4.9039

     highest occupied level (ev):     8.0653

!    total energy              =    -325.60369916 Ry
     estimated scf accuracy    <       0.00000010 Ry

     The total energy is the sum of the following terms:
     one-electron contribution =    -150.96285146 Ry
     hartree contribution      =      93.25106796 Ry
     xc contribution           =     -95.23248526 Ry
     ewald contribution        =    -172.65943040 Ry

     convergence has been achieved in   6 iterations

     Writing all to output data dir ./alpha-sn-scf/alphatin.save/ :
     XML data file, charge density, pseudopotentials, collected wavefunctions

     init_run     :      0.36s CPU      0.41s WALL (       1 calls)
     electrons    :      0.13s CPU      0.18s WALL (       1 calls)

     Called by init_run:
     wfcinit      :      0.01s CPU      0.02s WALL (       1 calls)
     potinit      :      0.01s CPU      0.02s WALL (       1 calls)
     hinit0       :      0.32s CPU      0.34s WALL (       1 calls)

     Called by electrons:
     c_bands      :      0.07s CPU      0.08s WALL (       7 calls)
     sum_band     :      0.02s CPU      0.03s WALL (       7 calls)
     v_of_rho     :      0.03s CPU      0.03s WALL (       7 calls)
     newd         :      0.01s CPU      0.01s WALL (       7 calls)
     mix_rho      :      0.00s CPU      0.00s WALL (       7 calls)

     Called by c_bands:
     init_us_2    :      0.00s CPU      0.00s WALL (      15 calls)
     cegterg      :      0.06s CPU      0.06s WALL (       7 calls)

     Called by *egterg:
     cdiaghg      :      0.01s CPU      0.01s WALL (      25 calls)
     h_psi        :      0.05s CPU      0.06s WALL (      27 calls)
     s_psi        :      0.00s CPU      0.00s WALL (      27 calls)
     g_psi        :      0.00s CPU      0.00s WALL (      19 calls)

     Called by h_psi:
     h_psi:calbec :      0.00s CPU      0.00s WALL (      27 calls)
     vloc_psi     :      0.04s CPU      0.05s WALL (      27 calls)
     add_vuspsi   :      0.00s CPU      0.00s WALL (      27 calls)

     General routines
     calbec       :      0.00s CPU      0.00s WALL (      34 calls)
     fft          :      0.31s CPU      0.31s WALL (      78 calls)
     ffts         :      0.00s CPU      0.00s WALL (       7 calls)
     fftw         :      0.05s CPU      0.06s WALL (     622 calls)

     Parallel routines

     PWSCF        :      0.74s CPU      0.98s WALL


   This run was terminated on:  16: 7:50   5Feb2026            

=------------------------------------------------------------------------------=
   JOB DONE.
=------------------------------------------------------------------------------=
