
     Program PWSCF v.7.3.1 starts on  5Feb2026 at 16: 8:45 

     This program is part of the open-source Quantum ESPRESSO suite
     for quantum simulation of materials; please cite
         "P. Giannozzi et al., J. Phys.:Condens. Matter 21 395502 (2009);
         "P. Giannozzi et al., J. Phys.:Condens. Matter 29 465901 (2017);
         "P. Giannozzi et al., J. Chem. Phys. 152 154105 (2020);
          URL http://www.quantum-espresso.org", 
     in publications or presentations arising from this work. More details at
     http://www.quantum-espresso.org/quote

     Parallel version (MPI), running on   128 processors

     MPI processes distributed on     1 nodes
     241391 MiB available memory on the printing compute node when the environment starts

     Waiting for input...
     Reading input from standard input
     Message from routine read_cards :
     DEPRECATED: no units specified in ATOMIC_POSITIONS card
     Message from routine read_cards :
     ATOMIC_POSITIONS: units set to alat

     Current dimensions of program PWSCF are:
     Max number of different atomic species (ntypx) = 10
     Max number of k-points (npk) =  40000
     Max angular momentum in pseudopotentials (lmaxx) =  4

     K-points division:     npool     =       8
     R & G space division:  proc/nbgrp/npool/nimage =      16
     Subspace diagonalization in iterative solution of the eigenvalue problem:
     a serial algorithm will be used


     Parallelization info
     --------------------
     sticks:   dense  smooth     PW     G-vecs:    dense   smooth      PW
     Min          63      63     18                 1324     1324     210
     Max          65      65     19                 1326     1326     213
     Sum        1015    1015    301                21187    21187    3383

     Using Slab Decomposition



     bravais-lattice index     =            2
     lattice parameter (alat)  =      12.2300  a.u.
     unit-cell volume          =     457.3191 (a.u.)^3
     number of atoms/cell      =            2
     number of atomic types    =            1
     number of electrons       =        28.00
     number of Kohn-Sham states=           14
     kinetic-energy cutoff     =      49.0000  Ry
     charge density cutoff     =     196.0000  Ry
     scf convergence threshold =      1.0E-07
     mixing beta               =       0.7000
     number of iterations used =            8  plain     mixing
     Exchange-correlation=  SLA  PW   GGX  GGC
                           (   1   4   2   2   0   0   0)

     celldm(1)=  12.230000  celldm(2)=   0.000000  celldm(3)=   0.000000
     celldm(4)=   0.000000  celldm(5)=   0.000000  celldm(6)=   0.000000

     crystal axes: (cart. coord. in units of alat)
               a(1) = (  -0.500000   0.000000   0.500000 )  
               a(2) = (   0.000000   0.500000   0.500000 )  
               a(3) = (  -0.500000   0.500000   0.000000 )  

     reciprocal axes: (cart. coord. in units 2 pi/alat)
               b(1) = ( -1.000000 -1.000000  1.000000 )  
               b(2) = (  1.000000  1.000000  1.000000 )  
               b(3) = ( -1.000000  1.000000 -1.000000 )  


     PseudoPot. # 1 for Sn read from file:
     ./Sn.pw91-n-van.UPF
     MD5 check sum: a38d2a872edd1a4efd76c0a1a38f7031
     Pseudo is Ultrasoft + core correction, Zval = 14.0
     Generated by new atomic code, or converted to UPF format
     Using radial grid of  891 points,  6 beta functions with: 
                l(1) =   0
                l(2) =   0
                l(3) =   1
                l(4) =   1
                l(5) =   2
                l(6) =   2
     Q(r) pseudized with  8 coefficients,  rinner =    1.100   1.100   1.100
                                                       1.100   1.100

     atomic species   valence    mass     pseudopotential
     Sn               14.00   118.70000     Sn( 1.00)

     48 Sym. Ops., with inversion, found (24 have fractional translation)



   Cartesian axes

     site n.     atom                  positions (alat units)
         1        Sn     tau(   1) = (   0.0000000   0.0000000   0.0000000  )
         2        Sn     tau(   2) = (   0.2500000   0.2500000   0.2500000  )

     number of k points=     8
                       cart. coord. in units 2pi/alat
        k(    1) = (   0.0000000   0.0000000   0.0000000), wk =   0.0312500
        k(    2) = (  -0.2500000   0.2500000  -0.2500000), wk =   0.2500000
        k(    3) = (   0.5000000  -0.5000000   0.5000000), wk =   0.1250000
        k(    4) = (   0.0000000   0.5000000   0.0000000), wk =   0.1875000
        k(    5) = (   0.7500000  -0.2500000   0.7500000), wk =   0.7500000
        k(    6) = (   0.5000000   0.0000000   0.5000000), wk =   0.3750000
        k(    7) = (   0.0000000  -1.0000000   0.0000000), wk =   0.0937500
        k(    8) = (  -0.5000000  -1.0000000   0.0000000), wk =   0.1875000

     Dense  grid:    21187 G-vectors     FFT dimensions: (  40,  40,  40)

     Estimated max dynamical RAM per process >       2.62 MB

     Estimated total dynamical RAM >     299.38 MB

     Initial potential from superposition of free atoms

     starting charge      27.9964, renormalised to      28.0000
     Starting wfcs are   18 randomized atomic wfcs

     total cpu time spent up to now is        0.7 secs

     per-process dynamical memory:    10.5 Mb

     Self-consistent Calculation

     iteration #  1     ecut=    49.00 Ry     beta= 0.70
     Davidson diagonalization with overlap
     ethr =  1.00E-02,  avg # of iterations =  1.5

     Threshold (ethr) on eigenvalues was too large:
     Diagonalizing with lowered threshold

     Davidson diagonalization with overlap
     ethr =  8.43E-05,  avg # of iterations =  2.0

     negative rho (up, down):  8.783E-05 0.000E+00

     total cpu time spent up to now is        0.8 secs

     total energy              =    -325.60258372 Ry
     estimated scf accuracy    <       0.02865676 Ry

     iteration #  2     ecut=    49.00 Ry     beta= 0.70
     Davidson diagonalization with overlap
     ethr =  1.02E-04,  avg # of iterations =  1.0

     negative rho (up, down):  1.461E-04 0.000E+00

     total cpu time spent up to now is        0.8 secs

     total energy              =    -325.60358194 Ry
     estimated scf accuracy    <       0.00163454 Ry

     iteration #  3     ecut=    49.00 Ry     beta= 0.70
     Davidson diagonalization with overlap
     ethr =  5.84E-06,  avg # of iterations =  2.1

     negative rho (up, down):  1.598E-04 0.000E+00

     total cpu time spent up to now is        0.8 secs

     total energy              =    -325.60371914 Ry
     estimated scf accuracy    <       0.00004068 Ry

     iteration #  4     ecut=    49.00 Ry     beta= 0.70
     Davidson diagonalization with overlap
     ethr =  1.45E-07,  avg # of iterations =  3.5

     negative rho (up, down):  1.686E-04 0.000E+00

     total cpu time spent up to now is        0.8 secs

     total energy              =    -325.60373146 Ry
     estimated scf accuracy    <       0.00000342 Ry

     iteration #  5     ecut=    49.00 Ry     beta= 0.70
     Davidson diagonalization with overlap
     ethr =  1.22E-08,  avg # of iterations =  3.6

     negative rho (up, down):  1.677E-04 0.000E+00

     total cpu time spent up to now is        0.9 secs

     total energy              =    -325.60373208 Ry
     estimated scf accuracy    <       0.00000034 Ry

     iteration #  6     ecut=    49.00 Ry     beta= 0.70
     Davidson diagonalization with overlap
     ethr =  1.22E-09,  avg # of iterations =  2.6

     negative rho (up, down):  1.681E-04 0.000E+00

     total cpu time spent up to now is        0.9 secs

     End of self-consistent calculation

          k = 0.0000 0.0000 0.0000 (  2685 PWs)   bands (ev):

   -13.7004 -13.7004 -13.7004 -13.6416 -13.6416 -13.3237 -13.3237 -13.3237
   -13.3152 -13.3152  -2.7013   7.3335   8.0634   8.0634

          k =-0.2500 0.2500-0.2500 (  2650 PWs)   bands (ev):

   -13.7268 -13.7268 -13.6873 -13.6008 -13.6008 -13.3695 -13.3695 -13.3406
   -13.2778 -13.2778  -2.1093   3.9173   7.3002   7.3002

          k = 0.5000-0.5000 0.5000 (  2638 PWs)   bands (ev):

   -13.7375 -13.7375 -13.6733 -13.5796 -13.5796 -13.3858 -13.3858 -13.3582
   -13.2661 -13.2661  -1.0629   1.6342   6.8430   6.8430

          k = 0.0000 0.5000 0.0000 (  2650 PWs)   bands (ev):

   -13.7286 -13.7286 -13.7047 -13.5929 -13.5430 -13.4565 -13.3621 -13.2936
   -13.2824 -13.2824  -1.8923   3.8031   6.3561   6.3561

          k = 0.7500-0.2500 0.7500 (  2645 PWs)   bands (ev):

   -13.7675 -13.7469 -13.6408 -13.5421 -13.5128 -13.4845 -13.4169 -13.3681
   -13.2540 -13.2329  -0.7150   1.6723   5.0196   6.0389

          k = 0.5000 0.0000 0.5000 (  2650 PWs)   bands (ev):

   -13.7609 -13.7489 -13.6345 -13.5766 -13.5389 -13.4309 -13.3996 -13.3856
   -13.2502 -13.2433  -1.2024   2.3646   4.9301   6.7743

          k = 0.0000-1.0000 0.0000 (  2650 PWs)   bands (ev):

   -13.7529 -13.7529 -13.6165 -13.6165 -13.4766 -13.4766 -13.3909 -13.3909
   -13.2450 -13.2450   0.4170   0.4170   5.4844   5.4844

          k =-0.5000-1.0000 0.0000 (  2656 PWs)   bands (ev):

   -13.7710 -13.7710 -13.5574 -13.5574 -13.4858 -13.4858 -13.4403 -13.4403
   -13.2274 -13.2274   0.4773   0.4773   4.9002   4.9002

     highest occupied level (ev):     8.0634

!    total energy              =    -325.60373213 Ry
     estimated scf accuracy    <       0.00000005 Ry

     The total energy is the sum of the following terms:
     one-electron contribution =    -150.96008310 Ry
     hartree contribution      =      93.24738374 Ry
     xc contribution           =     -95.23160237 Ry
     ewald contribution        =    -172.65943041 Ry

     convergence has been achieved in   6 iterations

     Writing all to output data dir ./alpha-sn-scf/alphatin.save/ :
     XML data file, charge density, pseudopotentials, collected wavefunctions

     init_run     :      0.38s CPU      0.41s WALL (       1 calls)
     electrons    :      0.13s CPU      0.19s WALL (       1 calls)

     Called by init_run:
     wfcinit      :      0.01s CPU      0.02s WALL (       1 calls)
     potinit      :      0.01s CPU      0.02s WALL (       1 calls)
     hinit0       :      0.32s CPU      0.33s WALL (       1 calls)

     Called by electrons:
     c_bands      :      0.06s CPU      0.08s WALL (       7 calls)
     sum_band     :      0.02s CPU      0.04s WALL (       7 calls)
     v_of_rho     :      0.03s CPU      0.03s WALL (       7 calls)
     newd         :      0.01s CPU      0.01s WALL (       7 calls)
     mix_rho      :      0.00s CPU      0.00s WALL (       7 calls)

     Called by c_bands:
     init_us_2    :      0.00s CPU      0.00s WALL (      15 calls)
     cegterg      :      0.05s CPU      0.07s WALL (       7 calls)

     Called by *egterg:
     cdiaghg      :      0.01s CPU      0.01s WALL (      28 calls)
     h_psi        :      0.05s CPU      0.06s WALL (      30 calls)
     s_psi        :      0.00s CPU      0.00s WALL (      30 calls)
     g_psi        :      0.00s CPU      0.00s WALL (      22 calls)

     Called by h_psi:
     h_psi:calbec :      0.00s CPU      0.00s WALL (      30 calls)
     vloc_psi     :      0.04s CPU      0.06s WALL (      30 calls)
     add_vuspsi   :      0.00s CPU      0.00s WALL (      30 calls)

     General routines
     calbec       :      0.00s CPU      0.00s WALL (      37 calls)
     fft          :      0.30s CPU      0.31s WALL (      78 calls)
     ffts         :      0.00s CPU      0.00s WALL (       7 calls)
     fftw         :      0.04s CPU      0.06s WALL (     620 calls)

     Parallel routines

     PWSCF        :      0.74s CPU      0.99s WALL


   This run was terminated on:  16: 8:46   5Feb2026            

=------------------------------------------------------------------------------=
   JOB DONE.
=------------------------------------------------------------------------------=
