
     Program PWSCF v.7.3.1 starts on  5Feb2026 at 16:16: 2 

     This program is part of the open-source Quantum ESPRESSO suite
     for quantum simulation of materials; please cite
         "P. Giannozzi et al., J. Phys.:Condens. Matter 21 395502 (2009);
         "P. Giannozzi et al., J. Phys.:Condens. Matter 29 465901 (2017);
         "P. Giannozzi et al., J. Chem. Phys. 152 154105 (2020);
          URL http://www.quantum-espresso.org", 
     in publications or presentations arising from this work. More details at
     http://www.quantum-espresso.org/quote

     Parallel version (MPI), running on   128 processors

     MPI processes distributed on     1 nodes
     241305 MiB available memory on the printing compute node when the environment starts

     Waiting for input...
     Reading input from standard input
     Message from routine read_cards :
     DEPRECATED: no units specified in ATOMIC_POSITIONS card
     Message from routine read_cards :
     ATOMIC_POSITIONS: units set to alat

     Current dimensions of program PWSCF are:
     Max number of different atomic species (ntypx) = 10
     Max number of k-points (npk) =  40000
     Max angular momentum in pseudopotentials (lmaxx) =  4

     K-points division:     npool     =       8
     R & G space division:  proc/nbgrp/npool/nimage =      16
     Subspace diagonalization in iterative solution of the eigenvalue problem:
     a serial algorithm will be used


     Parallelization info
     --------------------
     sticks:   dense  smooth     PW     G-vecs:    dense   smooth      PW
     Min         118     118     32                 3366     3366     495
     Max         119     119     33                 3369     3369     498
     Sum        1891    1891    517                53881    53881    7943

     Using Slab Decomposition



     bravais-lattice index     =            2
     lattice parameter (alat)  =      12.2300  a.u.
     unit-cell volume          =     457.3191 (a.u.)^3
     number of atoms/cell      =            2
     number of atomic types    =            1
     number of electrons       =        28.00
     number of Kohn-Sham states=           14
     kinetic-energy cutoff     =      91.0000  Ry
     charge density cutoff     =     364.0000  Ry
     scf convergence threshold =      1.0E-07
     mixing beta               =       0.7000
     number of iterations used =            8  plain     mixing
     Exchange-correlation=  SLA  PW   GGX  GGC
                           (   1   4   2   2   0   0   0)

     celldm(1)=  12.230000  celldm(2)=   0.000000  celldm(3)=   0.000000
     celldm(4)=   0.000000  celldm(5)=   0.000000  celldm(6)=   0.000000

     crystal axes: (cart. coord. in units of alat)
               a(1) = (  -0.500000   0.000000   0.500000 )  
               a(2) = (   0.000000   0.500000   0.500000 )  
               a(3) = (  -0.500000   0.500000   0.000000 )  

     reciprocal axes: (cart. coord. in units 2 pi/alat)
               b(1) = ( -1.000000 -1.000000  1.000000 )  
               b(2) = (  1.000000  1.000000  1.000000 )  
               b(3) = ( -1.000000  1.000000 -1.000000 )  


     PseudoPot. # 1 for Sn read from file:
     ./Sn.pw91-n-van.UPF
     MD5 check sum: a38d2a872edd1a4efd76c0a1a38f7031
     Pseudo is Ultrasoft + core correction, Zval = 14.0
     Generated by new atomic code, or converted to UPF format
     Using radial grid of  891 points,  6 beta functions with: 
                l(1) =   0
                l(2) =   0
                l(3) =   1
                l(4) =   1
                l(5) =   2
                l(6) =   2
     Q(r) pseudized with  8 coefficients,  rinner =    1.100   1.100   1.100
                                                       1.100   1.100

     atomic species   valence    mass     pseudopotential
     Sn               14.00   118.70000     Sn( 1.00)

     48 Sym. Ops., with inversion, found (24 have fractional translation)



   Cartesian axes

     site n.     atom                  positions (alat units)
         1        Sn     tau(   1) = (   0.0000000   0.0000000   0.0000000  )
         2        Sn     tau(   2) = (   0.2500000   0.2500000   0.2500000  )

     number of k points=     8
                       cart. coord. in units 2pi/alat
        k(    1) = (   0.0000000   0.0000000   0.0000000), wk =   0.0312500
        k(    2) = (  -0.2500000   0.2500000  -0.2500000), wk =   0.2500000
        k(    3) = (   0.5000000  -0.5000000   0.5000000), wk =   0.1250000
        k(    4) = (   0.0000000   0.5000000   0.0000000), wk =   0.1875000
        k(    5) = (   0.7500000  -0.2500000   0.7500000), wk =   0.7500000
        k(    6) = (   0.5000000   0.0000000   0.5000000), wk =   0.3750000
        k(    7) = (   0.0000000  -1.0000000   0.0000000), wk =   0.0937500
        k(    8) = (  -0.5000000  -1.0000000   0.0000000), wk =   0.1875000

     Dense  grid:    53881 G-vectors     FFT dimensions: (  60,  60,  60)

     Estimated max dynamical RAM per process >       5.49 MB

     Estimated total dynamical RAM >     610.93 MB

     Initial potential from superposition of free atoms

     starting charge      27.9964, renormalised to      28.0000
     Starting wfcs are   18 randomized atomic wfcs

     total cpu time spent up to now is        0.9 secs

     per-process dynamical memory:    12.2 Mb

     Self-consistent Calculation

     iteration #  1     ecut=    91.00 Ry     beta= 0.70
     Davidson diagonalization with overlap
     ethr =  1.00E-02,  avg # of iterations =  1.5

     Threshold (ethr) on eigenvalues was too large:
     Diagonalizing with lowered threshold

     Davidson diagonalization with overlap
     ethr =  8.21E-05,  avg # of iterations =  2.2

     total cpu time spent up to now is        1.0 secs

     total energy              =    -325.61413628 Ry
     estimated scf accuracy    <       0.02865589 Ry

     iteration #  2     ecut=    91.00 Ry     beta= 0.70
     Davidson diagonalization with overlap
     ethr =  1.02E-04,  avg # of iterations =  1.0

     negative rho (up, down):  1.146E-05 0.000E+00

     total cpu time spent up to now is        1.0 secs

     total energy              =    -325.61512381 Ry
     estimated scf accuracy    <       0.00161938 Ry

     iteration #  3     ecut=    91.00 Ry     beta= 0.70
     Davidson diagonalization with overlap
     ethr =  5.78E-06,  avg # of iterations =  2.1

     negative rho (up, down):  1.553E-05 0.000E+00

     total cpu time spent up to now is        1.1 secs

     total energy              =    -325.61525886 Ry
     estimated scf accuracy    <       0.00003916 Ry

     iteration #  4     ecut=    91.00 Ry     beta= 0.70
     Davidson diagonalization with overlap
     ethr =  1.40E-07,  avg # of iterations =  3.5

     negative rho (up, down):  1.811E-05 0.000E+00

     total cpu time spent up to now is        1.1 secs

     total energy              =    -325.61527038 Ry
     estimated scf accuracy    <       0.00000334 Ry

     iteration #  5     ecut=    91.00 Ry     beta= 0.70
     Davidson diagonalization with overlap
     ethr =  1.19E-08,  avg # of iterations =  3.5

     negative rho (up, down):  1.788E-05 0.000E+00

     total cpu time spent up to now is        1.2 secs

     total energy              =    -325.61527097 Ry
     estimated scf accuracy    <       0.00000033 Ry

     iteration #  6     ecut=    91.00 Ry     beta= 0.70
     Davidson diagonalization with overlap
     ethr =  1.19E-09,  avg # of iterations =  2.1

     negative rho (up, down):  1.799E-05 0.000E+00

     total cpu time spent up to now is        1.2 secs

     End of self-consistent calculation

          k = 0.0000 0.0000 0.0000 (  6735 PWs)   bands (ev):

   -13.7063 -13.7063 -13.7063 -13.6471 -13.6471 -13.3296 -13.3296 -13.3296
   -13.3209 -13.3209  -2.7006   7.3358   8.0635   8.0635

          k =-0.2500 0.2500-0.2500 (  6696 PWs)   bands (ev):

   -13.7326 -13.7326 -13.6931 -13.6063 -13.6063 -13.3752 -13.3752 -13.3464
   -13.2837 -13.2837  -2.1086   3.9182   7.3004   7.3004

          k = 0.5000-0.5000 0.5000 (  6754 PWs)   bands (ev):

   -13.7434 -13.7434 -13.6792 -13.5851 -13.5851 -13.3915 -13.3915 -13.3642
   -13.2720 -13.2720  -1.0622   1.6348   6.8432   6.8432

          k = 0.0000 0.5000 0.0000 (  6715 PWs)   bands (ev):

   -13.7345 -13.7345 -13.7104 -13.5985 -13.5486 -13.4622 -13.3677 -13.2993
   -13.2883 -13.2883  -1.8916   3.8042   6.3563   6.3563

          k = 0.7500-0.2500 0.7500 (  6718 PWs)   bands (ev):

   -13.7733 -13.7527 -13.6465 -13.5476 -13.5185 -13.4902 -13.4226 -13.3739
   -13.2599 -13.2388  -0.7142   1.6731   5.0196   6.0391

          k = 0.5000 0.0000 0.5000 (  6695 PWs)   bands (ev):

   -13.7667 -13.7547 -13.6403 -13.5822 -13.5444 -13.4365 -13.4055 -13.3912
   -13.2561 -13.2491  -1.2016   2.3655   4.9301   6.7745

          k = 0.0000-1.0000 0.0000 (  6710 PWs)   bands (ev):

   -13.7587 -13.7587 -13.6221 -13.6221 -13.4822 -13.4822 -13.3967 -13.3967
   -13.2509 -13.2509   0.4179   0.4179   5.4846   5.4846

          k =-0.5000-1.0000 0.0000 (  6688 PWs)   bands (ev):

   -13.7768 -13.7768 -13.5631 -13.5631 -13.4914 -13.4914 -13.4460 -13.4460
   -13.2333 -13.2333   0.4782   0.4782   4.9003   4.9003

     highest occupied level (ev):     8.0635

!    total energy              =    -325.61527103 Ry
     estimated scf accuracy    <       0.00000004 Ry

     The total energy is the sum of the following terms:
     one-electron contribution =    -150.97391564 Ry
     hartree contribution      =      93.25038360 Ry
     xc contribution           =     -95.23230863 Ry
     ewald contribution        =    -172.65943036 Ry

     convergence has been achieved in   6 iterations

     Writing all to output data dir ./alpha-sn-scf/alphatin.save/ :
     XML data file, charge density, pseudopotentials, collected wavefunctions

     init_run     :      0.51s CPU      0.57s WALL (       1 calls)
     electrons    :      0.31s CPU      0.36s WALL (       1 calls)

     Called by init_run:
     wfcinit      :      0.01s CPU      0.02s WALL (       1 calls)
     potinit      :      0.03s CPU      0.04s WALL (       1 calls)
     hinit0       :      0.45s CPU      0.46s WALL (       1 calls)

     Called by electrons:
     c_bands      :      0.13s CPU      0.15s WALL (       7 calls)
     sum_band     :      0.06s CPU      0.07s WALL (       7 calls)
     v_of_rho     :      0.08s CPU      0.09s WALL (       7 calls)
     newd         :      0.02s CPU      0.02s WALL (       7 calls)
     mix_rho      :      0.01s CPU      0.01s WALL (       7 calls)

     Called by c_bands:
     init_us_2    :      0.00s CPU      0.00s WALL (      15 calls)
     cegterg      :      0.12s CPU      0.13s WALL (       7 calls)

     Called by *egterg:
     cdiaghg      :      0.01s CPU      0.01s WALL (      27 calls)
     h_psi        :      0.10s CPU      0.12s WALL (      29 calls)
     s_psi        :      0.00s CPU      0.00s WALL (      29 calls)
     g_psi        :      0.00s CPU      0.00s WALL (      21 calls)

     Called by h_psi:
     h_psi:calbec :      0.00s CPU      0.01s WALL (      29 calls)
     vloc_psi     :      0.10s CPU      0.11s WALL (      29 calls)
     add_vuspsi   :      0.00s CPU      0.00s WALL (      29 calls)

     General routines
     calbec       :      0.00s CPU      0.01s WALL (      36 calls)
     fft          :      0.44s CPU      0.44s WALL (      78 calls)
     ffts         :      0.00s CPU      0.00s WALL (       7 calls)
     fftw         :      0.10s CPU      0.11s WALL (     618 calls)

     Parallel routines

     PWSCF        :      1.03s CPU      1.32s WALL


   This run was terminated on:  16:16: 3   5Feb2026            

=------------------------------------------------------------------------------=
   JOB DONE.
=------------------------------------------------------------------------------=
