
     Program PWSCF v.7.3.1 starts on  5Feb2026 at 16:33:58 

     This program is part of the open-source Quantum ESPRESSO suite
     for quantum simulation of materials; please cite
         "P. Giannozzi et al., J. Phys.:Condens. Matter 21 395502 (2009);
         "P. Giannozzi et al., J. Phys.:Condens. Matter 29 465901 (2017);
         "P. Giannozzi et al., J. Chem. Phys. 152 154105 (2020);
          URL http://www.quantum-espresso.org", 
     in publications or presentations arising from this work. More details at
     http://www.quantum-espresso.org/quote

     Parallel version (MPI), running on   128 processors

     MPI processes distributed on     1 nodes
     241275 MiB available memory on the printing compute node when the environment starts

     Waiting for input...
     Reading input from standard input
     Message from routine read_cards :
     DEPRECATED: no units specified in ATOMIC_POSITIONS card
     Message from routine read_cards :
     ATOMIC_POSITIONS: units set to alat

     Current dimensions of program PWSCF are:
     Max number of different atomic species (ntypx) = 10
     Max number of k-points (npk) =  40000
     Max angular momentum in pseudopotentials (lmaxx) =  4

     K-points division:     npool     =       4
     R & G space division:  proc/nbgrp/npool/nimage =      32
     Subspace diagonalization in iterative solution of the eigenvalue problem:
     a serial algorithm will be used


     Parallelization info
     --------------------
     sticks:   dense  smooth     PW     G-vecs:    dense   smooth      PW
     Min         119     119     32                 4852     4852     690
     Max         121     121     33                 4856     4856     694
     Sum        3817    3817   1039               155317   155317   22123

     Using Slab Decomposition



     bravais-lattice index     =            2
     lattice parameter (alat)  =      12.2300  a.u.
     unit-cell volume          =     457.3191 (a.u.)^3
     number of atoms/cell      =            2
     number of atomic types    =            1
     number of electrons       =        28.00
     number of Kohn-Sham states=           14
     kinetic-energy cutoff     =     185.0000  Ry
     charge density cutoff     =     740.0000  Ry
     scf convergence threshold =      1.0E-07
     mixing beta               =       0.7000
     number of iterations used =            8  plain     mixing
     Exchange-correlation=  SLA  PW   GGX  GGC
                           (   1   4   2   2   0   0   0)

     celldm(1)=  12.230000  celldm(2)=   0.000000  celldm(3)=   0.000000
     celldm(4)=   0.000000  celldm(5)=   0.000000  celldm(6)=   0.000000

     crystal axes: (cart. coord. in units of alat)
               a(1) = (  -0.500000   0.000000   0.500000 )  
               a(2) = (   0.000000   0.500000   0.500000 )  
               a(3) = (  -0.500000   0.500000   0.000000 )  

     reciprocal axes: (cart. coord. in units 2 pi/alat)
               b(1) = ( -1.000000 -1.000000  1.000000 )  
               b(2) = (  1.000000  1.000000  1.000000 )  
               b(3) = ( -1.000000  1.000000 -1.000000 )  


     PseudoPot. # 1 for Sn read from file:
     ./Sn.pw91-n-van.UPF
     MD5 check sum: a38d2a872edd1a4efd76c0a1a38f7031
     Pseudo is Ultrasoft + core correction, Zval = 14.0
     Generated by new atomic code, or converted to UPF format
     Using radial grid of  891 points,  6 beta functions with: 
                l(1) =   0
                l(2) =   0
                l(3) =   1
                l(4) =   1
                l(5) =   2
                l(6) =   2
     Q(r) pseudized with  8 coefficients,  rinner =    1.100   1.100   1.100
                                                       1.100   1.100

     atomic species   valence    mass     pseudopotential
     Sn               14.00   118.70000     Sn( 1.00)

     48 Sym. Ops., with inversion, found (24 have fractional translation)



   Cartesian axes

     site n.     atom                  positions (alat units)
         1        Sn     tau(   1) = (   0.0000000   0.0000000   0.0000000  )
         2        Sn     tau(   2) = (   0.2500000   0.2500000   0.2500000  )

     number of k points=     8
                       cart. coord. in units 2pi/alat
        k(    1) = (   0.0000000   0.0000000   0.0000000), wk =   0.0312500
        k(    2) = (  -0.2500000   0.2500000  -0.2500000), wk =   0.2500000
        k(    3) = (   0.5000000  -0.5000000   0.5000000), wk =   0.1250000
        k(    4) = (   0.0000000   0.5000000   0.0000000), wk =   0.1875000
        k(    5) = (   0.7500000  -0.2500000   0.7500000), wk =   0.7500000
        k(    6) = (   0.5000000   0.0000000   0.5000000), wk =   0.3750000
        k(    7) = (   0.0000000  -1.0000000   0.0000000), wk =   0.0937500
        k(    8) = (  -0.5000000  -1.0000000   0.0000000), wk =   0.1875000

     Dense  grid:   155317 G-vectors     FFT dimensions: (  80,  80,  80)

     Estimated max dynamical RAM per process >       9.78 MB

     Estimated total dynamical RAM >       1.11 GB

     Initial potential from superposition of free atoms

     starting charge      27.9964, renormalised to      28.0000
     Starting wfcs are   18 randomized atomic wfcs

     total cpu time spent up to now is        1.1 secs

     per-process dynamical memory:    16.1 Mb

     Self-consistent Calculation

     iteration #  1     ecut=   185.00 Ry     beta= 0.70
     Davidson diagonalization with overlap
     ethr =  1.00E-02,  avg # of iterations =  2.0

     Threshold (ethr) on eigenvalues was too large:
     Diagonalizing with lowered threshold

     Davidson diagonalization with overlap
     ethr =  8.70E-05,  avg # of iterations =  2.0

     total cpu time spent up to now is        1.3 secs

     total energy              =    -325.62506077 Ry
     estimated scf accuracy    <       0.02821746 Ry

     iteration #  2     ecut=   185.00 Ry     beta= 0.70
     Davidson diagonalization with overlap
     ethr =  1.01E-04,  avg # of iterations =  1.9

     total cpu time spent up to now is        1.4 secs

     total energy              =    -325.63085335 Ry
     estimated scf accuracy    <       0.00182508 Ry

     iteration #  3     ecut=   185.00 Ry     beta= 0.70
     Davidson diagonalization with overlap
     ethr =  6.52E-06,  avg # of iterations =  2.2

     negative rho (up, down):  1.634E-07 0.000E+00

     total cpu time spent up to now is        1.5 secs

     total energy              =    -325.63112344 Ry
     estimated scf accuracy    <       0.00007650 Ry

     iteration #  4     ecut=   185.00 Ry     beta= 0.70
     Davidson diagonalization with overlap
     ethr =  2.73E-07,  avg # of iterations =  3.0

     negative rho (up, down):  1.390E-06 0.000E+00

     total cpu time spent up to now is        1.6 secs

     total energy              =    -325.63115644 Ry
     estimated scf accuracy    <       0.00000663 Ry

     iteration #  5     ecut=   185.00 Ry     beta= 0.70
     Davidson diagonalization with overlap
     ethr =  2.37E-08,  avg # of iterations =  4.0

     negative rho (up, down):  1.302E-06 0.000E+00

     total cpu time spent up to now is        1.7 secs

     total energy              =    -325.63115751 Ry
     estimated scf accuracy    <       0.00000151 Ry

     iteration #  6     ecut=   185.00 Ry     beta= 0.70
     Davidson diagonalization with overlap
     ethr =  5.38E-09,  avg # of iterations =  2.0

     negative rho (up, down):  1.274E-06 0.000E+00

     total cpu time spent up to now is        1.8 secs

     End of self-consistent calculation

          k = 0.0000 0.0000 0.0000 ( 19579 PWs)   bands (ev):

   -13.7152 -13.7152 -13.7152 -13.6560 -13.6560 -13.3386 -13.3386 -13.3386
   -13.3300 -13.3300  -2.7012   7.3358   8.0624   8.0624

          k =-0.2500 0.2500-0.2500 ( 19429 PWs)   bands (ev):

   -13.7414 -13.7414 -13.7019 -13.6151 -13.6151 -13.3842 -13.3842 -13.3553
   -13.2927 -13.2927  -2.1092   3.9175   7.2995   7.2995

          k = 0.5000-0.5000 0.5000 ( 19428 PWs)   bands (ev):

   -13.7521 -13.7521 -13.6880 -13.5939 -13.5939 -13.4004 -13.4004 -13.3731
   -13.2809 -13.2809  -1.0628   1.6343   6.8423   6.8423

          k = 0.0000 0.5000 0.0000 ( 19454 PWs)   bands (ev):

   -13.7433 -13.7433 -13.7191 -13.6072 -13.5576 -13.4711 -13.3767 -13.3084
   -13.2973 -13.2973  -1.8922   3.8035   6.3554   6.3554

          k = 0.7500-0.2500 0.7500 ( 19423 PWs)   bands (ev):

   -13.7820 -13.7615 -13.6553 -13.5564 -13.5273 -13.4991 -13.4315 -13.3829
   -13.2689 -13.2478  -0.7149   1.6725   5.0189   6.0383

          k = 0.5000 0.0000 0.5000 ( 19419 PWs)   bands (ev):

   -13.7755 -13.7635 -13.6492 -13.5910 -13.5532 -13.4454 -13.4144 -13.4002
   -13.2651 -13.2581  -1.2022   2.3648   4.9294   6.7736

          k = 0.0000-1.0000 0.0000 ( 19342 PWs)   bands (ev):

   -13.7674 -13.7674 -13.6308 -13.6308 -13.4910 -13.4910 -13.4057 -13.4057
   -13.2598 -13.2598   0.4172   0.4172   5.4838   5.4838

          k =-0.5000-1.0000 0.0000 ( 19408 PWs)   bands (ev):

   -13.7855 -13.7855 -13.5720 -13.5720 -13.5002 -13.5002 -13.4548 -13.4548
   -13.2423 -13.2423   0.4775   0.4775   4.8995   4.8995

     highest occupied level (ev):     8.0624

!    total energy              =    -325.63115761 Ry
     estimated scf accuracy    <       0.00000006 Ry

     The total energy is the sum of the following terms:
     one-electron contribution =    -150.99678289 Ry
     hartree contribution      =      93.25930757 Ry
     xc contribution           =     -95.23425192 Ry
     ewald contribution        =    -172.65943036 Ry

     convergence has been achieved in   6 iterations

     Writing all to output data dir ./alpha-sn-scf/alphatin.save/ :
     XML data file, charge density, pseudopotentials, collected wavefunctions

     init_run     :      0.74s CPU      0.80s WALL (       1 calls)
     electrons    :      0.72s CPU      0.82s WALL (       1 calls)

     Called by init_run:
     wfcinit      :      0.04s CPU      0.04s WALL (       1 calls)
     potinit      :      0.03s CPU      0.04s WALL (       1 calls)
     hinit0       :      0.58s CPU      0.59s WALL (       1 calls)

     Called by electrons:
     c_bands      :      0.38s CPU      0.39s WALL (       7 calls)
     sum_band     :      0.16s CPU      0.17s WALL (       7 calls)
     v_of_rho     :      0.11s CPU      0.12s WALL (       7 calls)
     newd         :      0.05s CPU      0.06s WALL (       7 calls)
     mix_rho      :      0.01s CPU      0.01s WALL (       7 calls)

     Called by c_bands:
     init_us_2    :      0.01s CPU      0.01s WALL (      30 calls)
     cegterg      :      0.35s CPU      0.36s WALL (      14 calls)

     Called by *egterg:
     cdiaghg      :      0.02s CPU      0.02s WALL (      53 calls)
     h_psi        :      0.33s CPU      0.33s WALL (      57 calls)
     s_psi        :      0.01s CPU      0.01s WALL (      57 calls)
     g_psi        :      0.00s CPU      0.00s WALL (      41 calls)

     Called by h_psi:
     h_psi:calbec :      0.01s CPU      0.01s WALL (      57 calls)
     vloc_psi     :      0.31s CPU      0.31s WALL (      57 calls)
     add_vuspsi   :      0.01s CPU      0.01s WALL (      57 calls)

     General routines
     calbec       :      0.01s CPU      0.01s WALL (      71 calls)
     fft          :      0.59s CPU      0.60s WALL (      78 calls)
     ffts         :      0.01s CPU      0.01s WALL (       7 calls)
     fftw         :      0.33s CPU      0.33s WALL (    1200 calls)

     Parallel routines

     PWSCF        :      1.87s CPU      2.24s WALL


   This run was terminated on:  16:34: 0   5Feb2026            

=------------------------------------------------------------------------------=
   JOB DONE.
=------------------------------------------------------------------------------=
