
     Program PWSCF v.7.3.1 starts on  5Feb2026 at 16:23:44 

     This program is part of the open-source Quantum ESPRESSO suite
     for quantum simulation of materials; please cite
         "P. Giannozzi et al., J. Phys.:Condens. Matter 21 395502 (2009);
         "P. Giannozzi et al., J. Phys.:Condens. Matter 29 465901 (2017);
         "P. Giannozzi et al., J. Chem. Phys. 152 154105 (2020);
          URL http://www.quantum-espresso.org", 
     in publications or presentations arising from this work. More details at
     http://www.quantum-espresso.org/quote

     Parallel version (MPI), running on   128 processors

     MPI processes distributed on     1 nodes
     241314 MiB available memory on the printing compute node when the environment starts

     Waiting for input...
     Reading input from standard input
     Message from routine read_cards :
     DEPRECATED: no units specified in ATOMIC_POSITIONS card
     Message from routine read_cards :
     ATOMIC_POSITIONS: units set to alat

     Current dimensions of program PWSCF are:
     Max number of different atomic species (ntypx) = 10
     Max number of k-points (npk) =  40000
     Max angular momentum in pseudopotentials (lmaxx) =  4

     K-points division:     npool     =       4
     R & G space division:  proc/nbgrp/npool/nimage =      32
     Subspace diagonalization in iterative solution of the eigenvalue problem:
     a serial algorithm will be used


     Parallelization info
     --------------------
     sticks:   dense  smooth     PW     G-vecs:    dense   smooth      PW
     Min          85      85     23                 2950     2950     428
     Max          86      86     24                 2954     2954     432
     Sum        2725    2725    757                94473    94473   13731

     Using Slab Decomposition



     bravais-lattice index     =            2
     lattice parameter (alat)  =      12.2300  a.u.
     unit-cell volume          =     457.3191 (a.u.)^3
     number of atoms/cell      =            2
     number of atomic types    =            1
     number of electrons       =        28.00
     number of Kohn-Sham states=           14
     kinetic-energy cutoff     =     133.0000  Ry
     charge density cutoff     =     532.0000  Ry
     scf convergence threshold =      1.0E-07
     mixing beta               =       0.7000
     number of iterations used =            8  plain     mixing
     Exchange-correlation=  SLA  PW   GGX  GGC
                           (   1   4   2   2   0   0   0)

     celldm(1)=  12.230000  celldm(2)=   0.000000  celldm(3)=   0.000000
     celldm(4)=   0.000000  celldm(5)=   0.000000  celldm(6)=   0.000000

     crystal axes: (cart. coord. in units of alat)
               a(1) = (  -0.500000   0.000000   0.500000 )  
               a(2) = (   0.000000   0.500000   0.500000 )  
               a(3) = (  -0.500000   0.500000   0.000000 )  

     reciprocal axes: (cart. coord. in units 2 pi/alat)
               b(1) = ( -1.000000 -1.000000  1.000000 )  
               b(2) = (  1.000000  1.000000  1.000000 )  
               b(3) = ( -1.000000  1.000000 -1.000000 )  


     PseudoPot. # 1 for Sn read from file:
     ./Sn.pw91-n-van.UPF
     MD5 check sum: a38d2a872edd1a4efd76c0a1a38f7031
     Pseudo is Ultrasoft + core correction, Zval = 14.0
     Generated by new atomic code, or converted to UPF format
     Using radial grid of  891 points,  6 beta functions with: 
                l(1) =   0
                l(2) =   0
                l(3) =   1
                l(4) =   1
                l(5) =   2
                l(6) =   2
     Q(r) pseudized with  8 coefficients,  rinner =    1.100   1.100   1.100
                                                       1.100   1.100

     atomic species   valence    mass     pseudopotential
     Sn               14.00   118.70000     Sn( 1.00)

     48 Sym. Ops., with inversion, found (24 have fractional translation)



   Cartesian axes

     site n.     atom                  positions (alat units)
         1        Sn     tau(   1) = (   0.0000000   0.0000000   0.0000000  )
         2        Sn     tau(   2) = (   0.2500000   0.2500000   0.2500000  )

     number of k points=     8
                       cart. coord. in units 2pi/alat
        k(    1) = (   0.0000000   0.0000000   0.0000000), wk =   0.0312500
        k(    2) = (  -0.2500000   0.2500000  -0.2500000), wk =   0.2500000
        k(    3) = (   0.5000000  -0.5000000   0.5000000), wk =   0.1250000
        k(    4) = (   0.0000000   0.5000000   0.0000000), wk =   0.1875000
        k(    5) = (   0.7500000  -0.2500000   0.7500000), wk =   0.7500000
        k(    6) = (   0.5000000   0.0000000   0.5000000), wk =   0.3750000
        k(    7) = (   0.0000000  -1.0000000   0.0000000), wk =   0.0937500
        k(    8) = (  -0.5000000  -1.0000000   0.0000000), wk =   0.1875000

     Dense  grid:    94473 G-vectors     FFT dimensions: (  64,  64,  64)

     Estimated max dynamical RAM per process >       6.23 MB

     Estimated total dynamical RAM >     728.50 MB

     Initial potential from superposition of free atoms

     starting charge      27.9964, renormalised to      28.0000
     Starting wfcs are   18 randomized atomic wfcs

     total cpu time spent up to now is        0.8 secs

     per-process dynamical memory:    12.2 Mb

     Self-consistent Calculation

     iteration #  1     ecut=   133.00 Ry     beta= 0.70
     Davidson diagonalization with overlap
     ethr =  1.00E-02,  avg # of iterations =  1.8

     Threshold (ethr) on eigenvalues was too large:
     Diagonalizing with lowered threshold

     Davidson diagonalization with overlap
     ethr =  8.57E-05,  avg # of iterations =  2.2

     total cpu time spent up to now is        1.0 secs

     total energy              =    -325.62282565 Ry
     estimated scf accuracy    <       0.02942065 Ry

     iteration #  2     ecut=   133.00 Ry     beta= 0.70
     Davidson diagonalization with overlap
     ethr =  1.05E-04,  avg # of iterations =  1.0

     total cpu time spent up to now is        1.0 secs

     total energy              =    -325.62451414 Ry
     estimated scf accuracy    <       0.00148256 Ry

     iteration #  3     ecut=   133.00 Ry     beta= 0.70
     Davidson diagonalization with overlap
     ethr =  5.29E-06,  avg # of iterations =  2.4

     total cpu time spent up to now is        1.1 secs

     total energy              =    -325.62465993 Ry
     estimated scf accuracy    <       0.00003367 Ry

     iteration #  4     ecut=   133.00 Ry     beta= 0.70
     Davidson diagonalization with overlap
     ethr =  1.20E-07,  avg # of iterations =  3.5

     total cpu time spent up to now is        1.1 secs

     total energy              =    -325.62466999 Ry
     estimated scf accuracy    <       0.00000263 Ry

     iteration #  5     ecut=   133.00 Ry     beta= 0.70
     Davidson diagonalization with overlap
     ethr =  9.40E-09,  avg # of iterations =  3.8

     total cpu time spent up to now is        1.2 secs

     total energy              =    -325.62467043 Ry
     estimated scf accuracy    <       0.00000014 Ry

     iteration #  6     ecut=   133.00 Ry     beta= 0.70
     Davidson diagonalization with overlap
     ethr =  5.14E-10,  avg # of iterations =  2.6

     total cpu time spent up to now is        1.2 secs

     End of self-consistent calculation

          k = 0.0000 0.0000 0.0000 ( 11791 PWs)   bands (ev):

   -13.7107 -13.7107 -13.7107 -13.6518 -13.6518 -13.3342 -13.3342 -13.3342
   -13.3253 -13.3253  -2.7006   7.3363   8.0633   8.0633

          k =-0.2500 0.2500-0.2500 ( 11810 PWs)   bands (ev):

   -13.7372 -13.7372 -13.6976 -13.6108 -13.6108 -13.3799 -13.3799 -13.3509
   -13.2883 -13.2883  -2.1085   3.9182   7.3003   7.3003

          k = 0.5000-0.5000 0.5000 ( 11804 PWs)   bands (ev):

   -13.7478 -13.7478 -13.6838 -13.5896 -13.5896 -13.3959 -13.3959 -13.3688
   -13.2766 -13.2766  -1.0621   1.6349   6.8431   6.8431

          k = 0.0000 0.5000 0.0000 ( 11858 PWs)   bands (ev):

   -13.7391 -13.7391 -13.7150 -13.6030 -13.5533 -13.4668 -13.3725 -13.3040
   -13.2929 -13.2929  -1.8915   3.8043   6.3561   6.3561

          k = 0.7500-0.2500 0.7500 ( 11860 PWs)   bands (ev):

   -13.7779 -13.7573 -13.6510 -13.5522 -13.5230 -13.4948 -13.4273 -13.3786
   -13.2646 -13.2435  -0.7141   1.6732   5.0194   6.0390

          k = 0.5000 0.0000 0.5000 ( 11854 PWs)   bands (ev):

   -13.7712 -13.7594 -13.6449 -13.5867 -13.5490 -13.4411 -13.4101 -13.3959
   -13.2608 -13.2538  -1.2015   2.3656   4.9299   6.7744

          k = 0.0000-1.0000 0.0000 ( 11822 PWs)   bands (ev):

   -13.7632 -13.7632 -13.6266 -13.6266 -13.4867 -13.4867 -13.4013 -13.4013
   -13.2555 -13.2555   0.4180   0.4180   5.4845   5.4845

          k =-0.5000-1.0000 0.0000 ( 11832 PWs)   bands (ev):

   -13.7813 -13.7813 -13.5677 -13.5677 -13.4960 -13.4960 -13.4506 -13.4506
   -13.2379 -13.2379   0.4783   0.4783   4.9000   4.9000

     highest occupied level (ev):     8.0633

!    total energy              =    -325.62467046 Ry
     estimated scf accuracy    <       0.00000002 Ry

     The total energy is the sum of the following terms:
     one-electron contribution =    -150.98582267 Ry
     hartree contribution      =      93.25361902 Ry
     xc contribution           =     -95.23303645 Ry
     ewald contribution        =    -172.65943036 Ry

     convergence has been achieved in   6 iterations

     Writing all to output data dir ./alpha-sn-scf/alphatin.save/ :
     XML data file, charge density, pseudopotentials, collected wavefunctions

     init_run     :      0.44s CPU      0.50s WALL (       1 calls)
     electrons    :      0.38s CPU      0.46s WALL (       1 calls)

     Called by init_run:
     wfcinit      :      0.07s CPU      0.08s WALL (       1 calls)
     potinit      :      0.01s CPU      0.03s WALL (       1 calls)
     hinit0       :      0.29s CPU      0.31s WALL (       1 calls)

     Called by electrons:
     c_bands      :      0.20s CPU      0.23s WALL (       7 calls)
     sum_band     :      0.08s CPU      0.09s WALL (       7 calls)
     v_of_rho     :      0.05s CPU      0.06s WALL (       7 calls)
     newd         :      0.03s CPU      0.04s WALL (       7 calls)
     mix_rho      :      0.01s CPU      0.01s WALL (       7 calls)

     Called by c_bands:
     init_us_2    :      0.01s CPU      0.01s WALL (      30 calls)
     cegterg      :      0.19s CPU      0.21s WALL (      14 calls)

     Called by *egterg:
     cdiaghg      :      0.02s CPU      0.02s WALL (      55 calls)
     h_psi        :      0.21s CPU      0.23s WALL (      59 calls)
     s_psi        :      0.00s CPU      0.00s WALL (      59 calls)
     g_psi        :      0.00s CPU      0.00s WALL (      43 calls)

     Called by h_psi:
     h_psi:calbec :      0.01s CPU      0.01s WALL (      59 calls)
     vloc_psi     :      0.19s CPU      0.21s WALL (      59 calls)
     add_vuspsi   :      0.00s CPU      0.00s WALL (      59 calls)

     General routines
     calbec       :      0.01s CPU      0.01s WALL (      73 calls)
     fft          :      0.28s CPU      0.29s WALL (      78 calls)
     ffts         :      0.00s CPU      0.00s WALL (       7 calls)
     fftw         :      0.20s CPU      0.22s WALL (    1248 calls)

     Parallel routines

     PWSCF        :      1.11s CPU      1.51s WALL


   This run was terminated on:  16:23:46   5Feb2026            

=------------------------------------------------------------------------------=
   JOB DONE.
=------------------------------------------------------------------------------=
