
     Program PWSCF v.7.3.1 starts on  5Feb2026 at 16:21: 1 

     This program is part of the open-source Quantum ESPRESSO suite
     for quantum simulation of materials; please cite
         "P. Giannozzi et al., J. Phys.:Condens. Matter 21 395502 (2009);
         "P. Giannozzi et al., J. Phys.:Condens. Matter 29 465901 (2017);
         "P. Giannozzi et al., J. Chem. Phys. 152 154105 (2020);
          URL http://www.quantum-espresso.org", 
     in publications or presentations arising from this work. More details at
     http://www.quantum-espresso.org/quote

     Parallel version (MPI), running on   128 processors

     MPI processes distributed on     1 nodes
     241276 MiB available memory on the printing compute node when the environment starts

     Waiting for input...
     Reading input from standard input
     Message from routine read_cards :
     DEPRECATED: no units specified in ATOMIC_POSITIONS card
     Message from routine read_cards :
     ATOMIC_POSITIONS: units set to alat

     Current dimensions of program PWSCF are:
     Max number of different atomic species (ntypx) = 10
     Max number of k-points (npk) =  40000
     Max angular momentum in pseudopotentials (lmaxx) =  4

     K-points division:     npool     =       4
     R & G space division:  proc/nbgrp/npool/nimage =      32
     Subspace diagonalization in iterative solution of the eigenvalue problem:
     a serial algorithm will be used


     Parallelization info
     --------------------
     sticks:   dense  smooth     PW     G-vecs:    dense   smooth      PW
     Min          76      76     21                 2502     2502     362
     Max          77      77     22                 2505     2505     365
     Sum        2455    2455    673                80107    80107   11647

     Using Slab Decomposition



     bravais-lattice index     =            2
     lattice parameter (alat)  =      12.2300  a.u.
     unit-cell volume          =     457.3191 (a.u.)^3
     number of atoms/cell      =            2
     number of atomic types    =            1
     number of electrons       =        28.00
     number of Kohn-Sham states=           14
     kinetic-energy cutoff     =     119.0000  Ry
     charge density cutoff     =     476.0000  Ry
     scf convergence threshold =      1.0E-07
     mixing beta               =       0.7000
     number of iterations used =            8  plain     mixing
     Exchange-correlation=  SLA  PW   GGX  GGC
                           (   1   4   2   2   0   0   0)

     celldm(1)=  12.230000  celldm(2)=   0.000000  celldm(3)=   0.000000
     celldm(4)=   0.000000  celldm(5)=   0.000000  celldm(6)=   0.000000

     crystal axes: (cart. coord. in units of alat)
               a(1) = (  -0.500000   0.000000   0.500000 )  
               a(2) = (   0.000000   0.500000   0.500000 )  
               a(3) = (  -0.500000   0.500000   0.000000 )  

     reciprocal axes: (cart. coord. in units 2 pi/alat)
               b(1) = ( -1.000000 -1.000000  1.000000 )  
               b(2) = (  1.000000  1.000000  1.000000 )  
               b(3) = ( -1.000000  1.000000 -1.000000 )  


     PseudoPot. # 1 for Sn read from file:
     ./Sn.pw91-n-van.UPF
     MD5 check sum: a38d2a872edd1a4efd76c0a1a38f7031
     Pseudo is Ultrasoft + core correction, Zval = 14.0
     Generated by new atomic code, or converted to UPF format
     Using radial grid of  891 points,  6 beta functions with: 
                l(1) =   0
                l(2) =   0
                l(3) =   1
                l(4) =   1
                l(5) =   2
                l(6) =   2
     Q(r) pseudized with  8 coefficients,  rinner =    1.100   1.100   1.100
                                                       1.100   1.100

     atomic species   valence    mass     pseudopotential
     Sn               14.00   118.70000     Sn( 1.00)

     48 Sym. Ops., with inversion, found (24 have fractional translation)



   Cartesian axes

     site n.     atom                  positions (alat units)
         1        Sn     tau(   1) = (   0.0000000   0.0000000   0.0000000  )
         2        Sn     tau(   2) = (   0.2500000   0.2500000   0.2500000  )

     number of k points=     8
                       cart. coord. in units 2pi/alat
        k(    1) = (   0.0000000   0.0000000   0.0000000), wk =   0.0312500
        k(    2) = (  -0.2500000   0.2500000  -0.2500000), wk =   0.2500000
        k(    3) = (   0.5000000  -0.5000000   0.5000000), wk =   0.1250000
        k(    4) = (   0.0000000   0.5000000   0.0000000), wk =   0.1875000
        k(    5) = (   0.7500000  -0.2500000   0.7500000), wk =   0.7500000
        k(    6) = (   0.5000000   0.0000000   0.5000000), wk =   0.3750000
        k(    7) = (   0.0000000  -1.0000000   0.0000000), wk =   0.0937500
        k(    8) = (  -0.5000000  -1.0000000   0.0000000), wk =   0.1875000

     Dense  grid:    80107 G-vectors     FFT dimensions: (  64,  64,  64)

     Estimated max dynamical RAM per process >       5.55 MB

     Estimated total dynamical RAM >     651.87 MB

     Initial potential from superposition of free atoms

     starting charge      27.9964, renormalised to      28.0000
     Starting wfcs are   18 randomized atomic wfcs

     total cpu time spent up to now is        0.8 secs

     per-process dynamical memory:    12.0 Mb

     Self-consistent Calculation

     iteration #  1     ecut=   119.00 Ry     beta= 0.70
     Davidson diagonalization with overlap
     ethr =  1.00E-02,  avg # of iterations =  1.6

     Threshold (ethr) on eigenvalues was too large:
     Diagonalizing with lowered threshold

     Davidson diagonalization with overlap
     ethr =  8.49E-05,  avg # of iterations =  2.2

     total cpu time spent up to now is        0.9 secs

     total energy              =    -325.61745298 Ry
     estimated scf accuracy    <       0.02917424 Ry

     iteration #  2     ecut=   119.00 Ry     beta= 0.70
     Davidson diagonalization with overlap
     ethr =  1.04E-04,  avg # of iterations =  1.0

     total cpu time spent up to now is        1.0 secs

     total energy              =    -325.61877679 Ry
     estimated scf accuracy    <       0.00151899 Ry

     iteration #  3     ecut=   119.00 Ry     beta= 0.70
     Davidson diagonalization with overlap
     ethr =  5.42E-06,  avg # of iterations =  2.2

     total cpu time spent up to now is        1.0 secs

     total energy              =    -325.61891251 Ry
     estimated scf accuracy    <       0.00003431 Ry

     iteration #  4     ecut=   119.00 Ry     beta= 0.70
     Davidson diagonalization with overlap
     ethr =  1.23E-07,  avg # of iterations =  3.5

     total cpu time spent up to now is        1.1 secs

     total energy              =    -325.61892277 Ry
     estimated scf accuracy    <       0.00000276 Ry

     iteration #  5     ecut=   119.00 Ry     beta= 0.70
     Davidson diagonalization with overlap
     ethr =  9.85E-09,  avg # of iterations =  3.5

     total cpu time spent up to now is        1.1 secs

     total energy              =    -325.61892324 Ry
     estimated scf accuracy    <       0.00000017 Ry

     iteration #  6     ecut=   119.00 Ry     beta= 0.70
     Davidson diagonalization with overlap
     ethr =  6.21E-10,  avg # of iterations =  2.9

     total cpu time spent up to now is        1.2 secs

     End of self-consistent calculation

          k = 0.0000 0.0000 0.0000 (  9841 PWs)   bands (ev):

   -13.7077 -13.7077 -13.7077 -13.6485 -13.6485 -13.3309 -13.3309 -13.3309
   -13.3225 -13.3225  -2.7006   7.3361   8.0635   8.0635

          k =-0.2500 0.2500-0.2500 (  9991 PWs)   bands (ev):

   -13.7343 -13.7343 -13.6949 -13.6081 -13.6081 -13.3770 -13.3770 -13.3480
   -13.2854 -13.2854  -2.1085   3.9182   7.3004   7.3004

          k = 0.5000-0.5000 0.5000 ( 10002 PWs)   bands (ev):

   -13.7450 -13.7450 -13.6809 -13.5870 -13.5870 -13.3931 -13.3931 -13.3657
   -13.2738 -13.2738  -1.0621   1.6349   6.8432   6.8432

          k = 0.0000 0.5000 0.0000 ( 10021 PWs)   bands (ev):

   -13.7363 -13.7363 -13.7122 -13.6003 -13.5505 -13.4639 -13.3697 -13.3010
   -13.2901 -13.2901  -1.8915   3.8043   6.3562   6.3562

          k = 0.7500-0.2500 0.7500 ( 10036 PWs)   bands (ev):

   -13.7751 -13.7546 -13.6482 -13.5494 -13.5203 -13.4921 -13.4245 -13.3756
   -13.2618 -13.2406  -0.7141   1.6732   5.0196   6.0391

          k = 0.5000 0.0000 0.5000 ( 10029 PWs)   bands (ev):

   -13.7685 -13.7565 -13.6421 -13.5840 -13.5464 -13.4383 -13.4073 -13.3930
   -13.2579 -13.2509  -1.2015   2.3656   4.9301   6.7745

          k = 0.0000-1.0000 0.0000 ( 10086 PWs)   bands (ev):

   -13.7607 -13.7607 -13.6240 -13.6240 -13.4842 -13.4842 -13.3986 -13.3986
   -13.2528 -13.2528   0.4179   0.4179   5.4846   5.4846

          k =-0.5000-1.0000 0.0000 ( 10012 PWs)   bands (ev):

   -13.7785 -13.7785 -13.5649 -13.5649 -13.4932 -13.4932 -13.4478 -13.4478
   -13.2350 -13.2350   0.4783   0.4783   4.9002   4.9002

     highest occupied level (ev):     8.0635

!    total energy              =    -325.61892327 Ry
     estimated scf accuracy    <       0.00000005 Ry

     The total energy is the sum of the following terms:
     one-electron contribution =    -150.97826395 Ry
     hartree contribution      =      93.25126325 Ry
     xc contribution           =     -95.23249222 Ry
     ewald contribution        =    -172.65943036 Ry

     convergence has been achieved in   6 iterations

     Writing all to output data dir ./alpha-sn-scf/alphatin.save/ :
     XML data file, charge density, pseudopotentials, collected wavefunctions

     init_run     :      0.39s CPU      0.49s WALL (       1 calls)
     electrons    :      0.36s CPU      0.43s WALL (       1 calls)

     Called by init_run:
     wfcinit      :      0.07s CPU      0.08s WALL (       1 calls)
     potinit      :      0.00s CPU      0.03s WALL (       1 calls)
     hinit0       :      0.28s CPU      0.31s WALL (       1 calls)

     Called by electrons:
     c_bands      :      0.20s CPU      0.22s WALL (       7 calls)
     sum_band     :      0.07s CPU      0.09s WALL (       7 calls)
     v_of_rho     :      0.04s CPU      0.06s WALL (       7 calls)
     newd         :      0.02s CPU      0.03s WALL (       7 calls)
     mix_rho      :      0.01s CPU      0.01s WALL (       7 calls)

     Called by c_bands:
     init_us_2    :      0.00s CPU      0.01s WALL (      30 calls)
     cegterg      :      0.19s CPU      0.20s WALL (      14 calls)

     Called by *egterg:
     cdiaghg      :      0.02s CPU      0.02s WALL (      56 calls)
     h_psi        :      0.21s CPU      0.23s WALL (      60 calls)
     s_psi        :      0.00s CPU      0.00s WALL (      60 calls)
     g_psi        :      0.00s CPU      0.00s WALL (      44 calls)

     Called by h_psi:
     h_psi:calbec :      0.01s CPU      0.01s WALL (      60 calls)
     vloc_psi     :      0.19s CPU      0.21s WALL (      60 calls)
     add_vuspsi   :      0.00s CPU      0.00s WALL (      60 calls)

     General routines
     calbec       :      0.01s CPU      0.01s WALL (      74 calls)
     fft          :      0.28s CPU      0.29s WALL (      78 calls)
     ffts         :      0.00s CPU      0.00s WALL (       7 calls)
     fftw         :      0.20s CPU      0.22s WALL (    1254 calls)

     Parallel routines

     PWSCF        :      1.00s CPU      1.34s WALL


   This run was terminated on:  16:21: 3   5Feb2026            

=------------------------------------------------------------------------------=
   JOB DONE.
=------------------------------------------------------------------------------=
