
     Program PWSCF v.7.3.1 starts on  5Feb2026 at 16:12:38 

     This program is part of the open-source Quantum ESPRESSO suite
     for quantum simulation of materials; please cite
         "P. Giannozzi et al., J. Phys.:Condens. Matter 21 395502 (2009);
         "P. Giannozzi et al., J. Phys.:Condens. Matter 29 465901 (2017);
         "P. Giannozzi et al., J. Chem. Phys. 152 154105 (2020);
          URL http://www.quantum-espresso.org", 
     in publications or presentations arising from this work. More details at
     http://www.quantum-espresso.org/quote

     Parallel version (MPI), running on   128 processors

     MPI processes distributed on     1 nodes
     241377 MiB available memory on the printing compute node when the environment starts

     Waiting for input...
     Reading input from standard input
     Message from routine read_cards :
     DEPRECATED: no units specified in ATOMIC_POSITIONS card
     Message from routine read_cards :
     ATOMIC_POSITIONS: units set to alat

     Current dimensions of program PWSCF are:
     Max number of different atomic species (ntypx) = 10
     Max number of k-points (npk) =  40000
     Max angular momentum in pseudopotentials (lmaxx) =  4

     K-points division:     npool     =       8
     R & G space division:  proc/nbgrp/npool/nimage =      16
     Subspace diagonalization in iterative solution of the eigenvalue problem:
     a serial algorithm will be used


     Parallelization info
     --------------------
     sticks:   dense  smooth     PW     G-vecs:    dense   smooth      PW
     Min          94      94     27                 2406     2406     372
     Max          95      95     28                 2409     2409     375
     Sum        1507    1507    433                38517    38517    5961

     Using Slab Decomposition



     bravais-lattice index     =            2
     lattice parameter (alat)  =      12.2300  a.u.
     unit-cell volume          =     457.3191 (a.u.)^3
     number of atoms/cell      =            2
     number of atomic types    =            1
     number of electrons       =        28.00
     number of Kohn-Sham states=           14
     kinetic-energy cutoff     =      73.0000  Ry
     charge density cutoff     =     292.0000  Ry
     scf convergence threshold =      1.0E-07
     mixing beta               =       0.7000
     number of iterations used =            8  plain     mixing
     Exchange-correlation=  SLA  PW   GGX  GGC
                           (   1   4   2   2   0   0   0)

     celldm(1)=  12.230000  celldm(2)=   0.000000  celldm(3)=   0.000000
     celldm(4)=   0.000000  celldm(5)=   0.000000  celldm(6)=   0.000000

     crystal axes: (cart. coord. in units of alat)
               a(1) = (  -0.500000   0.000000   0.500000 )  
               a(2) = (   0.000000   0.500000   0.500000 )  
               a(3) = (  -0.500000   0.500000   0.000000 )  

     reciprocal axes: (cart. coord. in units 2 pi/alat)
               b(1) = ( -1.000000 -1.000000  1.000000 )  
               b(2) = (  1.000000  1.000000  1.000000 )  
               b(3) = ( -1.000000  1.000000 -1.000000 )  


     PseudoPot. # 1 for Sn read from file:
     ./Sn.pw91-n-van.UPF
     MD5 check sum: a38d2a872edd1a4efd76c0a1a38f7031
     Pseudo is Ultrasoft + core correction, Zval = 14.0
     Generated by new atomic code, or converted to UPF format
     Using radial grid of  891 points,  6 beta functions with: 
                l(1) =   0
                l(2) =   0
                l(3) =   1
                l(4) =   1
                l(5) =   2
                l(6) =   2
     Q(r) pseudized with  8 coefficients,  rinner =    1.100   1.100   1.100
                                                       1.100   1.100

     atomic species   valence    mass     pseudopotential
     Sn               14.00   118.70000     Sn( 1.00)

     48 Sym. Ops., with inversion, found (24 have fractional translation)



   Cartesian axes

     site n.     atom                  positions (alat units)
         1        Sn     tau(   1) = (   0.0000000   0.0000000   0.0000000  )
         2        Sn     tau(   2) = (   0.2500000   0.2500000   0.2500000  )

     number of k points=     8
                       cart. coord. in units 2pi/alat
        k(    1) = (   0.0000000   0.0000000   0.0000000), wk =   0.0312500
        k(    2) = (  -0.2500000   0.2500000  -0.2500000), wk =   0.2500000
        k(    3) = (   0.5000000  -0.5000000   0.5000000), wk =   0.1250000
        k(    4) = (   0.0000000   0.5000000   0.0000000), wk =   0.1875000
        k(    5) = (   0.7500000  -0.2500000   0.7500000), wk =   0.7500000
        k(    6) = (   0.5000000   0.0000000   0.5000000), wk =   0.3750000
        k(    7) = (   0.0000000  -1.0000000   0.0000000), wk =   0.0937500
        k(    8) = (  -0.5000000  -1.0000000   0.0000000), wk =   0.1875000

     Dense  grid:    38517 G-vectors     FFT dimensions: (  48,  48,  48)

     Estimated max dynamical RAM per process >       3.97 MB

     Estimated total dynamical RAM >     442.65 MB

     Initial potential from superposition of free atoms

     starting charge      27.9964, renormalised to      28.0000
     Starting wfcs are   18 randomized atomic wfcs

     total cpu time spent up to now is        0.8 secs

     per-process dynamical memory:    11.3 Mb

     Self-consistent Calculation

     iteration #  1     ecut=    73.00 Ry     beta= 0.70
     Davidson diagonalization with overlap
     ethr =  1.00E-02,  avg # of iterations =  1.6

     Threshold (ethr) on eigenvalues was too large:
     Diagonalizing with lowered threshold

     Davidson diagonalization with overlap
     ethr =  8.35E-05,  avg # of iterations =  2.0

     total cpu time spent up to now is        0.9 secs

     total energy              =    -325.61189306 Ry
     estimated scf accuracy    <       0.02856567 Ry

     iteration #  2     ecut=    73.00 Ry     beta= 0.70
     Davidson diagonalization with overlap
     ethr =  1.02E-04,  avg # of iterations =  1.0

     total cpu time spent up to now is        0.9 secs

     total energy              =    -325.61287918 Ry
     estimated scf accuracy    <       0.00163901 Ry

     iteration #  3     ecut=    73.00 Ry     beta= 0.70
     Davidson diagonalization with overlap
     ethr =  5.85E-06,  avg # of iterations =  2.2

     total cpu time spent up to now is        0.9 secs

     total energy              =    -325.61301948 Ry
     estimated scf accuracy    <       0.00004059 Ry

     iteration #  4     ecut=    73.00 Ry     beta= 0.70
     Davidson diagonalization with overlap
     ethr =  1.45E-07,  avg # of iterations =  3.5

     total cpu time spent up to now is        1.0 secs

     total energy              =    -325.61303145 Ry
     estimated scf accuracy    <       0.00000333 Ry

     iteration #  5     ecut=    73.00 Ry     beta= 0.70
     Davidson diagonalization with overlap
     ethr =  1.19E-08,  avg # of iterations =  3.9

     total cpu time spent up to now is        1.0 secs

     total energy              =    -325.61303222 Ry
     estimated scf accuracy    <       0.00000033 Ry

     iteration #  6     ecut=    73.00 Ry     beta= 0.70
     Davidson diagonalization with overlap
     ethr =  1.17E-09,  avg # of iterations =  2.6

     total cpu time spent up to now is        1.0 secs

     total energy              =    -325.61303227 Ry
     estimated scf accuracy    <       0.00000013 Ry

     iteration #  7     ecut=    73.00 Ry     beta= 0.70
     Davidson diagonalization with overlap
     ethr =  4.64E-10,  avg # of iterations =  2.0

     total cpu time spent up to now is        1.0 secs

     End of self-consistent calculation

          k = 0.0000 0.0000 0.0000 (  4909 PWs)   bands (ev):

   -13.7052 -13.7052 -13.7052 -13.6467 -13.6467 -13.3283 -13.3283 -13.3283
   -13.3204 -13.3204  -2.6996   7.3366   8.0642   8.0642

          k =-0.2500 0.2500-0.2500 (  4813 PWs)   bands (ev):

   -13.7316 -13.7316 -13.6921 -13.6058 -13.6058 -13.3746 -13.3746 -13.3451
   -13.2826 -13.2826  -2.1077   3.9191   7.3011   7.3011

          k = 0.5000-0.5000 0.5000 (  4802 PWs)   bands (ev):

   -13.7423 -13.7423 -13.6781 -13.5846 -13.5846 -13.3910 -13.3910 -13.3629
   -13.2707 -13.2707  -1.0615   1.6361   6.8438   6.8438

          k = 0.0000 0.5000 0.0000 (  4833 PWs)   bands (ev):

   -13.7334 -13.7334 -13.7095 -13.5980 -13.5480 -13.4613 -13.3672 -13.2986
   -13.2870 -13.2870  -1.8907   3.8048   6.3570   6.3570

          k = 0.7500-0.2500 0.7500 (  4816 PWs)   bands (ev):

   -13.7723 -13.7517 -13.6455 -13.5471 -13.5177 -13.4894 -13.4221 -13.3730
   -13.2586 -13.2376  -0.7135   1.6739   5.0214   6.0398

          k = 0.5000 0.0000 0.5000 (  4836 PWs)   bands (ev):

   -13.7657 -13.7538 -13.6393 -13.5817 -13.5439 -13.4359 -13.4043 -13.3907
   -13.2549 -13.2479  -1.2008   2.3662   4.9320   6.7752

          k = 0.0000-1.0000 0.0000 (  4800 PWs)   bands (ev):

   -13.7576 -13.7576 -13.6212 -13.6212 -13.4817 -13.4817 -13.3960 -13.3960
   -13.2495 -13.2495   0.4186   0.4186   5.4854   5.4854

          k =-0.5000-1.0000 0.0000 (  4788 PWs)   bands (ev):

   -13.7757 -13.7757 -13.5622 -13.5622 -13.4908 -13.4908 -13.4453 -13.4453
   -13.2320 -13.2320   0.4788   0.4788   4.9020   4.9020

     highest occupied level (ev):     8.0642

!    total energy              =    -325.61303228 Ry
     estimated scf accuracy    <          1.6E-09 Ry

     The total energy is the sum of the following terms:
     one-electron contribution =    -150.97299749 Ry
     hartree contribution      =      93.25209836 Ry
     xc contribution           =     -95.23270278 Ry
     ewald contribution        =    -172.65943036 Ry

     convergence has been achieved in   7 iterations

     Writing all to output data dir ./alpha-sn-scf/alphatin.save/ :
     XML data file, charge density, pseudopotentials, collected wavefunctions

     init_run     :      0.42s CPU      0.48s WALL (       1 calls)
     electrons    :      0.21s CPU      0.27s WALL (       1 calls)

     Called by init_run:
     wfcinit      :      0.01s CPU      0.01s WALL (       1 calls)
     potinit      :      0.01s CPU      0.03s WALL (       1 calls)
     hinit0       :      0.38s CPU      0.39s WALL (       1 calls)

     Called by electrons:
     c_bands      :      0.08s CPU      0.11s WALL (       8 calls)
     sum_band     :      0.05s CPU      0.06s WALL (       8 calls)
     v_of_rho     :      0.04s CPU      0.05s WALL (       8 calls)
     newd         :      0.02s CPU      0.02s WALL (       8 calls)
     mix_rho      :      0.01s CPU      0.01s WALL (       8 calls)

     Called by c_bands:
     init_us_2    :      0.00s CPU      0.00s WALL (      17 calls)
     cegterg      :      0.08s CPU      0.09s WALL (       8 calls)

     Called by *egterg:
     cdiaghg      :      0.01s CPU      0.01s WALL (      30 calls)
     h_psi        :      0.06s CPU      0.08s WALL (      32 calls)
     s_psi        :      0.00s CPU      0.00s WALL (      32 calls)
     g_psi        :      0.00s CPU      0.00s WALL (      23 calls)

     Called by h_psi:
     h_psi:calbec :      0.00s CPU      0.00s WALL (      32 calls)
     vloc_psi     :      0.06s CPU      0.07s WALL (      32 calls)
     add_vuspsi   :      0.00s CPU      0.00s WALL (      32 calls)

     General routines
     calbec       :      0.00s CPU      0.01s WALL (      40 calls)
     fft          :      0.37s CPU      0.37s WALL (      89 calls)
     ffts         :      0.00s CPU      0.00s WALL (       8 calls)
     fftw         :      0.06s CPU      0.07s WALL (     702 calls)

     Parallel routines

     PWSCF        :      0.89s CPU      1.17s WALL


   This run was terminated on:  16:12:39   5Feb2026            

=------------------------------------------------------------------------------=
   JOB DONE.
=------------------------------------------------------------------------------=
