
     Program PWSCF v.7.3.1 starts on  5Feb2026 at 16:11:39 

     This program is part of the open-source Quantum ESPRESSO suite
     for quantum simulation of materials; please cite
         "P. Giannozzi et al., J. Phys.:Condens. Matter 21 395502 (2009);
         "P. Giannozzi et al., J. Phys.:Condens. Matter 29 465901 (2017);
         "P. Giannozzi et al., J. Chem. Phys. 152 154105 (2020);
          URL http://www.quantum-espresso.org", 
     in publications or presentations arising from this work. More details at
     http://www.quantum-espresso.org/quote

     Parallel version (MPI), running on   128 processors

     MPI processes distributed on     1 nodes
     241349 MiB available memory on the printing compute node when the environment starts

     Waiting for input...
     Reading input from standard input
     Message from routine read_cards :
     DEPRECATED: no units specified in ATOMIC_POSITIONS card
     Message from routine read_cards :
     ATOMIC_POSITIONS: units set to alat

     Current dimensions of program PWSCF are:
     Max number of different atomic species (ntypx) = 10
     Max number of k-points (npk) =  40000
     Max angular momentum in pseudopotentials (lmaxx) =  4

     K-points division:     npool     =       8
     R & G space division:  proc/nbgrp/npool/nimage =      16
     Subspace diagonalization in iterative solution of the eigenvalue problem:
     a serial algorithm will be used


     Parallelization info
     --------------------
     sticks:   dense  smooth     PW     G-vecs:    dense   smooth      PW
     Min          86      86     24                 2113     2113     315
     Max          87      87     25                 2115     2115     318
     Sum        1381    1381    385                33823    33823    5065

     Using Slab Decomposition



     bravais-lattice index     =            2
     lattice parameter (alat)  =      12.2300  a.u.
     unit-cell volume          =     457.3191 (a.u.)^3
     number of atoms/cell      =            2
     number of atomic types    =            1
     number of electrons       =        28.00
     number of Kohn-Sham states=           14
     kinetic-energy cutoff     =      67.0000  Ry
     charge density cutoff     =     268.0000  Ry
     scf convergence threshold =      1.0E-07
     mixing beta               =       0.7000
     number of iterations used =            8  plain     mixing
     Exchange-correlation=  SLA  PW   GGX  GGC
                           (   1   4   2   2   0   0   0)

     celldm(1)=  12.230000  celldm(2)=   0.000000  celldm(3)=   0.000000
     celldm(4)=   0.000000  celldm(5)=   0.000000  celldm(6)=   0.000000

     crystal axes: (cart. coord. in units of alat)
               a(1) = (  -0.500000   0.000000   0.500000 )  
               a(2) = (   0.000000   0.500000   0.500000 )  
               a(3) = (  -0.500000   0.500000   0.000000 )  

     reciprocal axes: (cart. coord. in units 2 pi/alat)
               b(1) = ( -1.000000 -1.000000  1.000000 )  
               b(2) = (  1.000000  1.000000  1.000000 )  
               b(3) = ( -1.000000  1.000000 -1.000000 )  


     PseudoPot. # 1 for Sn read from file:
     ./Sn.pw91-n-van.UPF
     MD5 check sum: a38d2a872edd1a4efd76c0a1a38f7031
     Pseudo is Ultrasoft + core correction, Zval = 14.0
     Generated by new atomic code, or converted to UPF format
     Using radial grid of  891 points,  6 beta functions with: 
                l(1) =   0
                l(2) =   0
                l(3) =   1
                l(4) =   1
                l(5) =   2
                l(6) =   2
     Q(r) pseudized with  8 coefficients,  rinner =    1.100   1.100   1.100
                                                       1.100   1.100

     atomic species   valence    mass     pseudopotential
     Sn               14.00   118.70000     Sn( 1.00)

     48 Sym. Ops., with inversion, found (24 have fractional translation)



   Cartesian axes

     site n.     atom                  positions (alat units)
         1        Sn     tau(   1) = (   0.0000000   0.0000000   0.0000000  )
         2        Sn     tau(   2) = (   0.2500000   0.2500000   0.2500000  )

     number of k points=     8
                       cart. coord. in units 2pi/alat
        k(    1) = (   0.0000000   0.0000000   0.0000000), wk =   0.0312500
        k(    2) = (  -0.2500000   0.2500000  -0.2500000), wk =   0.2500000
        k(    3) = (   0.5000000  -0.5000000   0.5000000), wk =   0.1250000
        k(    4) = (   0.0000000   0.5000000   0.0000000), wk =   0.1875000
        k(    5) = (   0.7500000  -0.2500000   0.7500000), wk =   0.7500000
        k(    6) = (   0.5000000   0.0000000   0.5000000), wk =   0.3750000
        k(    7) = (   0.0000000  -1.0000000   0.0000000), wk =   0.0937500
        k(    8) = (  -0.5000000  -1.0000000   0.0000000), wk =   0.1875000

     Dense  grid:    33823 G-vectors     FFT dimensions: (  48,  48,  48)

     Estimated max dynamical RAM per process >       3.66 MB

     Estimated total dynamical RAM >     410.08 MB

     Initial potential from superposition of free atoms

     starting charge      27.9964, renormalised to      28.0000
     Starting wfcs are   18 randomized atomic wfcs

     total cpu time spent up to now is        0.8 secs

     per-process dynamical memory:    11.2 Mb

     Self-consistent Calculation

     iteration #  1     ecut=    67.00 Ry     beta= 0.70
     Davidson diagonalization with overlap
     ethr =  1.00E-02,  avg # of iterations =  1.6

     Threshold (ethr) on eigenvalues was too large:
     Diagonalizing with lowered threshold

     Davidson diagonalization with overlap
     ethr =  8.37E-05,  avg # of iterations =  2.1

     total cpu time spent up to now is        0.9 secs

     total energy              =    -325.61160655 Ry
     estimated scf accuracy    <       0.02860595 Ry

     iteration #  2     ecut=    67.00 Ry     beta= 0.70
     Davidson diagonalization with overlap
     ethr =  1.02E-04,  avg # of iterations =  1.0

     total cpu time spent up to now is        0.9 secs

     total energy              =    -325.61257778 Ry
     estimated scf accuracy    <       0.00163560 Ry

     iteration #  3     ecut=    67.00 Ry     beta= 0.70
     Davidson diagonalization with overlap
     ethr =  5.84E-06,  avg # of iterations =  2.1

     total cpu time spent up to now is        0.9 secs

     total energy              =    -325.61271489 Ry
     estimated scf accuracy    <       0.00003955 Ry

     iteration #  4     ecut=    67.00 Ry     beta= 0.70
     Davidson diagonalization with overlap
     ethr =  1.41E-07,  avg # of iterations =  3.8

     total cpu time spent up to now is        0.9 secs

     total energy              =    -325.61272766 Ry
     estimated scf accuracy    <       0.00000336 Ry

     iteration #  5     ecut=    67.00 Ry     beta= 0.70
     Davidson diagonalization with overlap
     ethr =  1.20E-08,  avg # of iterations =  3.2

     total cpu time spent up to now is        1.0 secs

     total energy              =    -325.61272819 Ry
     estimated scf accuracy    <       0.00000035 Ry

     iteration #  6     ecut=    67.00 Ry     beta= 0.70
     Davidson diagonalization with overlap
     ethr =  1.24E-09,  avg # of iterations =  2.5

     total cpu time spent up to now is        1.0 secs

     End of self-consistent calculation

          k = 0.0000 0.0000 0.0000 (  4279 PWs)   bands (ev):

   -13.7043 -13.7043 -13.7043 -13.6453 -13.6453 -13.3273 -13.3273 -13.3273
   -13.3190 -13.3190  -2.6996   7.3366   8.0644   8.0644

          k =-0.2500 0.2500-0.2500 (  4245 PWs)   bands (ev):

   -13.7306 -13.7306 -13.6911 -13.6045 -13.6045 -13.3733 -13.3733 -13.3441
   -13.2815 -13.2815  -2.1076   3.9191   7.3013   7.3013

          k = 0.5000-0.5000 0.5000 (  4236 PWs)   bands (ev):

   -13.7413 -13.7413 -13.6771 -13.5832 -13.5832 -13.3896 -13.3896 -13.3620
   -13.2696 -13.2696  -1.0613   1.6360   6.8440   6.8440

          k = 0.0000 0.5000 0.0000 (  4208 PWs)   bands (ev):

   -13.7324 -13.7324 -13.7084 -13.5966 -13.5467 -13.4601 -13.3658 -13.2973
   -13.2860 -13.2860  -1.8907   3.8050   6.3571   6.3571

          k = 0.7500-0.2500 0.7500 (  4238 PWs)   bands (ev):

   -13.7713 -13.7507 -13.6444 -13.5458 -13.5165 -13.4882 -13.4207 -13.3719
   -13.2576 -13.2366  -0.7134   1.6740   5.0210   6.0399

          k = 0.5000 0.0000 0.5000 (  4241 PWs)   bands (ev):

   -13.7647 -13.7527 -13.6383 -13.5803 -13.5426 -13.4346 -13.4033 -13.3893
   -13.2539 -13.2468  -1.2007   2.3663   4.9316   6.7753

          k = 0.0000-1.0000 0.0000 (  4200 PWs)   bands (ev):

   -13.7567 -13.7567 -13.6200 -13.6200 -13.4803 -13.4803 -13.3947 -13.3947
   -13.2485 -13.2485   0.4187   0.4187   5.4854   5.4854

          k =-0.5000-1.0000 0.0000 (  4240 PWs)   bands (ev):

   -13.7748 -13.7748 -13.5611 -13.5611 -13.4895 -13.4895 -13.4440 -13.4440
   -13.2310 -13.2310   0.4790   0.4790   4.9016   4.9016

     highest occupied level (ev):     8.0644

!    total energy              =    -325.61272825 Ry
     estimated scf accuracy    <       0.00000007 Ry

     The total energy is the sum of the following terms:
     one-electron contribution =    -150.97140543 Ry
     hartree contribution      =      93.25057089 Ry
     xc contribution           =     -95.23246335 Ry
     ewald contribution        =    -172.65943036 Ry

     convergence has been achieved in   6 iterations

     Writing all to output data dir ./alpha-sn-scf/alphatin.save/ :
     XML data file, charge density, pseudopotentials, collected wavefunctions

     init_run     :      0.45s CPU      0.49s WALL (       1 calls)
     electrons    :      0.17s CPU      0.23s WALL (       1 calls)

     Called by init_run:
     wfcinit      :      0.01s CPU      0.02s WALL (       1 calls)
     potinit      :      0.03s CPU      0.04s WALL (       1 calls)
     hinit0       :      0.38s CPU      0.39s WALL (       1 calls)

     Called by electrons:
     c_bands      :      0.08s CPU      0.09s WALL (       7 calls)
     sum_band     :      0.03s CPU      0.05s WALL (       7 calls)
     v_of_rho     :      0.04s CPU      0.04s WALL (       7 calls)
     newd         :      0.02s CPU      0.02s WALL (       7 calls)
     mix_rho      :      0.01s CPU      0.01s WALL (       7 calls)

     Called by c_bands:
     init_us_2    :      0.00s CPU      0.00s WALL (      15 calls)
     cegterg      :      0.07s CPU      0.08s WALL (       7 calls)

     Called by *egterg:
     cdiaghg      :      0.01s CPU      0.01s WALL (      27 calls)
     h_psi        :      0.06s CPU      0.07s WALL (      29 calls)
     s_psi        :      0.00s CPU      0.00s WALL (      29 calls)
     g_psi        :      0.00s CPU      0.00s WALL (      21 calls)

     Called by h_psi:
     h_psi:calbec :      0.00s CPU      0.00s WALL (      29 calls)
     vloc_psi     :      0.06s CPU      0.07s WALL (      29 calls)
     add_vuspsi   :      0.00s CPU      0.00s WALL (      29 calls)

     General routines
     calbec       :      0.00s CPU      0.00s WALL (      36 calls)
     fft          :      0.37s CPU      0.37s WALL (      78 calls)
     ffts         :      0.00s CPU      0.00s WALL (       7 calls)
     fftw         :      0.06s CPU      0.07s WALL (     618 calls)

     Parallel routines

     PWSCF        :      0.85s CPU      1.11s WALL


   This run was terminated on:  16:11:40   5Feb2026            

=------------------------------------------------------------------------------=
   JOB DONE.
=------------------------------------------------------------------------------=
