
     Program PWSCF v.7.3.1 starts on  5Feb2026 at 16: 8:27 

     This program is part of the open-source Quantum ESPRESSO suite
     for quantum simulation of materials; please cite
         "P. Giannozzi et al., J. Phys.:Condens. Matter 21 395502 (2009);
         "P. Giannozzi et al., J. Phys.:Condens. Matter 29 465901 (2017);
         "P. Giannozzi et al., J. Chem. Phys. 152 154105 (2020);
          URL http://www.quantum-espresso.org", 
     in publications or presentations arising from this work. More details at
     http://www.quantum-espresso.org/quote

     Parallel version (MPI), running on   128 processors

     MPI processes distributed on     1 nodes
     241401 MiB available memory on the printing compute node when the environment starts

     Waiting for input...
     Reading input from standard input
     Message from routine read_cards :
     DEPRECATED: no units specified in ATOMIC_POSITIONS card
     Message from routine read_cards :
     ATOMIC_POSITIONS: units set to alat

     Current dimensions of program PWSCF are:
     Max number of different atomic species (ntypx) = 10
     Max number of k-points (npk) =  40000
     Max angular momentum in pseudopotentials (lmaxx) =  4

     K-points division:     npool     =       8
     R & G space division:  proc/nbgrp/npool/nimage =      16
     Subspace diagonalization in iterative solution of the eigenvalue problem:
     a serial algorithm will be used


     Parallelization info
     --------------------
     sticks:   dense  smooth     PW     G-vecs:    dense   smooth      PW
     Min          59      59     17                 1239     1239     195
     Max          60      60     18                 1245     1245     198
     Sum         955     955    283                19891    19891    3143

     Using Slab Decomposition



     bravais-lattice index     =            2
     lattice parameter (alat)  =      12.2300  a.u.
     unit-cell volume          =     457.3191 (a.u.)^3
     number of atoms/cell      =            2
     number of atomic types    =            1
     number of electrons       =        28.00
     number of Kohn-Sham states=           14
     kinetic-energy cutoff     =      47.0000  Ry
     charge density cutoff     =     188.0000  Ry
     scf convergence threshold =      1.0E-07
     mixing beta               =       0.7000
     number of iterations used =            8  plain     mixing
     Exchange-correlation=  SLA  PW   GGX  GGC
                           (   1   4   2   2   0   0   0)

     celldm(1)=  12.230000  celldm(2)=   0.000000  celldm(3)=   0.000000
     celldm(4)=   0.000000  celldm(5)=   0.000000  celldm(6)=   0.000000

     crystal axes: (cart. coord. in units of alat)
               a(1) = (  -0.500000   0.000000   0.500000 )  
               a(2) = (   0.000000   0.500000   0.500000 )  
               a(3) = (  -0.500000   0.500000   0.000000 )  

     reciprocal axes: (cart. coord. in units 2 pi/alat)
               b(1) = ( -1.000000 -1.000000  1.000000 )  
               b(2) = (  1.000000  1.000000  1.000000 )  
               b(3) = ( -1.000000  1.000000 -1.000000 )  


     PseudoPot. # 1 for Sn read from file:
     ./Sn.pw91-n-van.UPF
     MD5 check sum: a38d2a872edd1a4efd76c0a1a38f7031
     Pseudo is Ultrasoft + core correction, Zval = 14.0
     Generated by new atomic code, or converted to UPF format
     Using radial grid of  891 points,  6 beta functions with: 
                l(1) =   0
                l(2) =   0
                l(3) =   1
                l(4) =   1
                l(5) =   2
                l(6) =   2
     Q(r) pseudized with  8 coefficients,  rinner =    1.100   1.100   1.100
                                                       1.100   1.100

     atomic species   valence    mass     pseudopotential
     Sn               14.00   118.70000     Sn( 1.00)

     48 Sym. Ops., with inversion, found (24 have fractional translation)



   Cartesian axes

     site n.     atom                  positions (alat units)
         1        Sn     tau(   1) = (   0.0000000   0.0000000   0.0000000  )
         2        Sn     tau(   2) = (   0.2500000   0.2500000   0.2500000  )

     number of k points=     8
                       cart. coord. in units 2pi/alat
        k(    1) = (   0.0000000   0.0000000   0.0000000), wk =   0.0312500
        k(    2) = (  -0.2500000   0.2500000  -0.2500000), wk =   0.2500000
        k(    3) = (   0.5000000  -0.5000000   0.5000000), wk =   0.1250000
        k(    4) = (   0.0000000   0.5000000   0.0000000), wk =   0.1875000
        k(    5) = (   0.7500000  -0.2500000   0.7500000), wk =   0.7500000
        k(    6) = (   0.5000000   0.0000000   0.5000000), wk =   0.3750000
        k(    7) = (   0.0000000  -1.0000000   0.0000000), wk =   0.0937500
        k(    8) = (  -0.5000000  -1.0000000   0.0000000), wk =   0.1875000

     Dense  grid:    19891 G-vectors     FFT dimensions: (  40,  40,  40)

     Estimated max dynamical RAM per process >       2.53 MB

     Estimated total dynamical RAM >     289.58 MB

     Initial potential from superposition of free atoms

     starting charge      27.9964, renormalised to      28.0000
     Starting wfcs are   18 randomized atomic wfcs

     total cpu time spent up to now is        0.7 secs

     per-process dynamical memory:    10.0 Mb

     Self-consistent Calculation

     iteration #  1     ecut=    47.00 Ry     beta= 0.70
     Davidson diagonalization with overlap
     ethr =  1.00E-02,  avg # of iterations =  1.5

     Threshold (ethr) on eigenvalues was too large:
     Diagonalizing with lowered threshold

     Davidson diagonalization with overlap
     ethr =  8.36E-05,  avg # of iterations =  2.1

     negative rho (up, down):  8.673E-05 0.000E+00

     total cpu time spent up to now is        0.8 secs

     total energy              =    -325.60243421 Ry
     estimated scf accuracy    <       0.02869445 Ry

     iteration #  2     ecut=    47.00 Ry     beta= 0.70
     Davidson diagonalization with overlap
     ethr =  1.02E-04,  avg # of iterations =  1.0

     negative rho (up, down):  1.373E-04 0.000E+00

     total cpu time spent up to now is        0.8 secs

     total energy              =    -325.60347177 Ry
     estimated scf accuracy    <       0.00162818 Ry

     iteration #  3     ecut=    47.00 Ry     beta= 0.70
     Davidson diagonalization with overlap
     ethr =  5.81E-06,  avg # of iterations =  2.1

     negative rho (up, down):  1.505E-04 0.000E+00

     total cpu time spent up to now is        0.8 secs

     total energy              =    -325.60360890 Ry
     estimated scf accuracy    <       0.00004009 Ry

     iteration #  4     ecut=    47.00 Ry     beta= 0.70
     Davidson diagonalization with overlap
     ethr =  1.43E-07,  avg # of iterations =  3.2

     negative rho (up, down):  1.588E-04 0.000E+00

     total cpu time spent up to now is        0.8 secs

     total energy              =    -325.60362096 Ry
     estimated scf accuracy    <       0.00000338 Ry

     iteration #  5     ecut=    47.00 Ry     beta= 0.70
     Davidson diagonalization with overlap
     ethr =  1.21E-08,  avg # of iterations =  3.4

     negative rho (up, down):  1.580E-04 0.000E+00

     total cpu time spent up to now is        0.9 secs

     total energy              =    -325.60362166 Ry
     estimated scf accuracy    <       0.00000033 Ry

     iteration #  6     ecut=    47.00 Ry     beta= 0.70
     Davidson diagonalization with overlap
     ethr =  1.18E-09,  avg # of iterations =  2.6

     negative rho (up, down):  1.584E-04 0.000E+00

     total cpu time spent up to now is        0.9 secs

     End of self-consistent calculation

          k = 0.0000 0.0000 0.0000 (  2445 PWs)   bands (ev):

   -13.6999 -13.6999 -13.6999 -13.6411 -13.6411 -13.3232 -13.3232 -13.3232
   -13.3146 -13.3146  -2.7008   7.3339   8.0637   8.0637

          k =-0.2500 0.2500-0.2500 (  2502 PWs)   bands (ev):

   -13.7263 -13.7263 -13.6868 -13.6002 -13.6002 -13.3690 -13.3690 -13.3401
   -13.2773 -13.2773  -2.1088   3.9178   7.3006   7.3006

          k = 0.5000-0.5000 0.5000 (  2488 PWs)   bands (ev):

   -13.7370 -13.7370 -13.6729 -13.5790 -13.5790 -13.3852 -13.3852 -13.3578
   -13.2655 -13.2655  -1.0626   1.6348   6.8433   6.8433

          k = 0.0000 0.5000 0.0000 (  2477 PWs)   bands (ev):

   -13.7282 -13.7282 -13.7042 -13.5923 -13.5424 -13.4560 -13.3615 -13.2930
   -13.2819 -13.2819  -1.8919   3.8034   6.3565   6.3565

          k = 0.7500-0.2500 0.7500 (  2482 PWs)   bands (ev):

   -13.7670 -13.7464 -13.6402 -13.5415 -13.5122 -13.4840 -13.4164 -13.3676
   -13.2535 -13.2324  -0.7146   1.6727   5.0202   6.0393

          k = 0.5000 0.0000 0.5000 (  2493 PWs)   bands (ev):

   -13.7604 -13.7485 -13.6340 -13.5761 -13.5383 -13.4303 -13.3991 -13.3850
   -13.2497 -13.2427  -1.2019   2.3650   4.9308   6.7747

          k = 0.0000-1.0000 0.0000 (  2498 PWs)   bands (ev):

   -13.7524 -13.7524 -13.6159 -13.6159 -13.4760 -13.4760 -13.3904 -13.3904
   -13.2444 -13.2444   0.4174   0.4174   5.4848   5.4848

          k =-0.5000-1.0000 0.0000 (  2488 PWs)   bands (ev):

   -13.7705 -13.7705 -13.5569 -13.5569 -13.4852 -13.4852 -13.4397 -13.4397
   -13.2269 -13.2269   0.4777   0.4777   4.9009   4.9009

     highest occupied level (ev):     8.0637

!    total energy              =    -325.60362171 Ry
     estimated scf accuracy    <       0.00000007 Ry

     The total energy is the sum of the following terms:
     one-electron contribution =    -150.96046102 Ry
     hartree contribution      =      93.24794482 Ry
     xc contribution           =     -95.23167511 Ry
     ewald contribution        =    -172.65943040 Ry

     convergence has been achieved in   6 iterations

     Writing all to output data dir ./alpha-sn-scf/alphatin.save/ :
     XML data file, charge density, pseudopotentials, collected wavefunctions

     init_run     :      0.36s CPU      0.41s WALL (       1 calls)
     electrons    :      0.14s CPU      0.18s WALL (       1 calls)

     Called by init_run:
     wfcinit      :      0.01s CPU      0.02s WALL (       1 calls)
     potinit      :      0.01s CPU      0.02s WALL (       1 calls)
     hinit0       :      0.31s CPU      0.34s WALL (       1 calls)

     Called by electrons:
     c_bands      :      0.06s CPU      0.07s WALL (       7 calls)
     sum_band     :      0.03s CPU      0.04s WALL (       7 calls)
     v_of_rho     :      0.03s CPU      0.03s WALL (       7 calls)
     newd         :      0.01s CPU      0.01s WALL (       7 calls)
     mix_rho      :      0.00s CPU      0.00s WALL (       7 calls)

     Called by c_bands:
     init_us_2    :      0.00s CPU      0.00s WALL (      15 calls)
     cegterg      :      0.06s CPU      0.06s WALL (       7 calls)

     Called by *egterg:
     cdiaghg      :      0.01s CPU      0.01s WALL (      27 calls)
     h_psi        :      0.05s CPU      0.06s WALL (      29 calls)
     s_psi        :      0.00s CPU      0.00s WALL (      29 calls)
     g_psi        :      0.00s CPU      0.00s WALL (      21 calls)

     Called by h_psi:
     h_psi:calbec :      0.00s CPU      0.00s WALL (      29 calls)
     vloc_psi     :      0.05s CPU      0.05s WALL (      29 calls)
     add_vuspsi   :      0.00s CPU      0.00s WALL (      29 calls)

     General routines
     calbec       :      0.00s CPU      0.00s WALL (      36 calls)
     fft          :      0.30s CPU      0.31s WALL (      78 calls)
     ffts         :      0.00s CPU      0.00s WALL (       7 calls)
     fftw         :      0.05s CPU      0.05s WALL (     620 calls)

     Parallel routines

     PWSCF        :      0.74s CPU      1.00s WALL


   This run was terminated on:  16: 8:28   5Feb2026            

=------------------------------------------------------------------------------=
   JOB DONE.
=------------------------------------------------------------------------------=
