
     Program PWSCF v.7.3.1 starts on  5Feb2026 at 16:32:47 

     This program is part of the open-source Quantum ESPRESSO suite
     for quantum simulation of materials; please cite
         "P. Giannozzi et al., J. Phys.:Condens. Matter 21 395502 (2009);
         "P. Giannozzi et al., J. Phys.:Condens. Matter 29 465901 (2017);
         "P. Giannozzi et al., J. Chem. Phys. 152 154105 (2020);
          URL http://www.quantum-espresso.org", 
     in publications or presentations arising from this work. More details at
     http://www.quantum-espresso.org/quote

     Parallel version (MPI), running on   128 processors

     MPI processes distributed on     1 nodes
     241251 MiB available memory on the printing compute node when the environment starts

     Waiting for input...
     Reading input from standard input
     Message from routine read_cards :
     DEPRECATED: no units specified in ATOMIC_POSITIONS card
     Message from routine read_cards :
     ATOMIC_POSITIONS: units set to alat

     Current dimensions of program PWSCF are:
     Max number of different atomic species (ntypx) = 10
     Max number of k-points (npk) =  40000
     Max angular momentum in pseudopotentials (lmaxx) =  4

     K-points division:     npool     =       4
     R & G space division:  proc/nbgrp/npool/nimage =      32
     Subspace diagonalization in iterative solution of the eigenvalue problem:
     a serial algorithm will be used


     Parallelization info
     --------------------
     sticks:   dense  smooth     PW     G-vecs:    dense   smooth      PW
     Min         116     116     32                 4691     4691     665
     Max         117     117     33                 4693     4693     668
     Sum        3721    3721   1027               150157   150157   21331

     Using Slab Decomposition



     bravais-lattice index     =            2
     lattice parameter (alat)  =      12.2300  a.u.
     unit-cell volume          =     457.3191 (a.u.)^3
     number of atoms/cell      =            2
     number of atomic types    =            1
     number of electrons       =        28.00
     number of Kohn-Sham states=           14
     kinetic-energy cutoff     =     181.0000  Ry
     charge density cutoff     =     724.0000  Ry
     scf convergence threshold =      1.0E-07
     mixing beta               =       0.7000
     number of iterations used =            8  plain     mixing
     Exchange-correlation=  SLA  PW   GGX  GGC
                           (   1   4   2   2   0   0   0)

     celldm(1)=  12.230000  celldm(2)=   0.000000  celldm(3)=   0.000000
     celldm(4)=   0.000000  celldm(5)=   0.000000  celldm(6)=   0.000000

     crystal axes: (cart. coord. in units of alat)
               a(1) = (  -0.500000   0.000000   0.500000 )  
               a(2) = (   0.000000   0.500000   0.500000 )  
               a(3) = (  -0.500000   0.500000   0.000000 )  

     reciprocal axes: (cart. coord. in units 2 pi/alat)
               b(1) = ( -1.000000 -1.000000  1.000000 )  
               b(2) = (  1.000000  1.000000  1.000000 )  
               b(3) = ( -1.000000  1.000000 -1.000000 )  


     PseudoPot. # 1 for Sn read from file:
     ./Sn.pw91-n-van.UPF
     MD5 check sum: a38d2a872edd1a4efd76c0a1a38f7031
     Pseudo is Ultrasoft + core correction, Zval = 14.0
     Generated by new atomic code, or converted to UPF format
     Using radial grid of  891 points,  6 beta functions with: 
                l(1) =   0
                l(2) =   0
                l(3) =   1
                l(4) =   1
                l(5) =   2
                l(6) =   2
     Q(r) pseudized with  8 coefficients,  rinner =    1.100   1.100   1.100
                                                       1.100   1.100

     atomic species   valence    mass     pseudopotential
     Sn               14.00   118.70000     Sn( 1.00)

     48 Sym. Ops., with inversion, found (24 have fractional translation)



   Cartesian axes

     site n.     atom                  positions (alat units)
         1        Sn     tau(   1) = (   0.0000000   0.0000000   0.0000000  )
         2        Sn     tau(   2) = (   0.2500000   0.2500000   0.2500000  )

     number of k points=     8
                       cart. coord. in units 2pi/alat
        k(    1) = (   0.0000000   0.0000000   0.0000000), wk =   0.0312500
        k(    2) = (  -0.2500000   0.2500000  -0.2500000), wk =   0.2500000
        k(    3) = (   0.5000000  -0.5000000   0.5000000), wk =   0.1250000
        k(    4) = (   0.0000000   0.5000000   0.0000000), wk =   0.1875000
        k(    5) = (   0.7500000  -0.2500000   0.7500000), wk =   0.7500000
        k(    6) = (   0.5000000   0.0000000   0.5000000), wk =   0.3750000
        k(    7) = (   0.0000000  -1.0000000   0.0000000), wk =   0.0937500
        k(    8) = (  -0.5000000  -1.0000000   0.0000000), wk =   0.1875000

     Dense  grid:   150157 G-vectors     FFT dimensions: (  80,  80,  80)

     Estimated max dynamical RAM per process >       9.55 MB

     Estimated total dynamical RAM >       1.09 GB

     Initial potential from superposition of free atoms

     starting charge      27.9964, renormalised to      28.0000
     Starting wfcs are   18 randomized atomic wfcs

     total cpu time spent up to now is        1.1 secs

     per-process dynamical memory:    14.0 Mb

     Self-consistent Calculation

     iteration #  1     ecut=   181.00 Ry     beta= 0.70
     Davidson diagonalization with overlap
     ethr =  1.00E-02,  avg # of iterations =  2.0

     Threshold (ethr) on eigenvalues was too large:
     Diagonalizing with lowered threshold

     Davidson diagonalization with overlap
     ethr =  8.71E-05,  avg # of iterations =  2.0

     total cpu time spent up to now is        1.3 secs

     total energy              =    -325.62525039 Ry
     estimated scf accuracy    <       0.02862681 Ry

     iteration #  2     ecut=   181.00 Ry     beta= 0.70
     Davidson diagonalization with overlap
     ethr =  1.02E-04,  avg # of iterations =  1.6

     total cpu time spent up to now is        1.4 secs

     total energy              =    -325.63019219 Ry
     estimated scf accuracy    <       0.00174089 Ry

     iteration #  3     ecut=   181.00 Ry     beta= 0.70
     Davidson diagonalization with overlap
     ethr =  6.22E-06,  avg # of iterations =  2.4

     negative rho (up, down):  1.021E-06 0.000E+00

     total cpu time spent up to now is        1.5 secs

     total energy              =    -325.63045724 Ry
     estimated scf accuracy    <       0.00007068 Ry

     iteration #  4     ecut=   181.00 Ry     beta= 0.70
     Davidson diagonalization with overlap
     ethr =  2.52E-07,  avg # of iterations =  3.1

     negative rho (up, down):  2.468E-06 0.000E+00

     total cpu time spent up to now is        1.6 secs

     total energy              =    -325.63048665 Ry
     estimated scf accuracy    <       0.00000600 Ry

     iteration #  5     ecut=   181.00 Ry     beta= 0.70
     Davidson diagonalization with overlap
     ethr =  2.14E-08,  avg # of iterations =  3.5

     negative rho (up, down):  2.384E-06 0.000E+00

     total cpu time spent up to now is        1.8 secs

     total energy              =    -325.63048741 Ry
     estimated scf accuracy    <       0.00000129 Ry

     iteration #  6     ecut=   181.00 Ry     beta= 0.70
     Davidson diagonalization with overlap
     ethr =  4.60E-09,  avg # of iterations =  2.0

     negative rho (up, down):  2.360E-06 0.000E+00

     total cpu time spent up to now is        1.9 secs

     End of self-consistent calculation

          k = 0.0000 0.0000 0.0000 ( 18883 PWs)   bands (ev):

   -13.7147 -13.7147 -13.7147 -13.6555 -13.6555 -13.3382 -13.3382 -13.3382
   -13.3295 -13.3295  -2.7011   7.3358   8.0625   8.0625

          k =-0.2500 0.2500-0.2500 ( 18822 PWs)   bands (ev):

   -13.7410 -13.7410 -13.7016 -13.6147 -13.6147 -13.3838 -13.3838 -13.3550
   -13.2923 -13.2923  -2.1091   3.9176   7.2996   7.2996

          k = 0.5000-0.5000 0.5000 ( 18780 PWs)   bands (ev):

   -13.7517 -13.7517 -13.6874 -13.5934 -13.5934 -13.4000 -13.4000 -13.3727
   -13.2804 -13.2804  -1.0627   1.6343   6.8424   6.8424

          k = 0.0000 0.5000 0.0000 ( 18830 PWs)   bands (ev):

   -13.7429 -13.7429 -13.7188 -13.6068 -13.5571 -13.4707 -13.3762 -13.3080
   -13.2969 -13.2969  -1.8921   3.8036   6.3555   6.3555

          k = 0.7500-0.2500 0.7500 ( 18809 PWs)   bands (ev):

   -13.7816 -13.7611 -13.6549 -13.5560 -13.5269 -13.4987 -13.4311 -13.3825
   -13.2685 -13.2474  -0.7148   1.6726   5.0189   6.0383

          k = 0.5000 0.0000 0.5000 ( 18803 PWs)   bands (ev):

   -13.7751 -13.7630 -13.6488 -13.5905 -13.5528 -13.4450 -13.4140 -13.3998
   -13.2647 -13.2577  -1.2021   2.3649   4.9294   6.7737

          k = 0.0000-1.0000 0.0000 ( 18718 PWs)   bands (ev):

   -13.7669 -13.7669 -13.6305 -13.6305 -13.4905 -13.4905 -13.4052 -13.4052
   -13.2594 -13.2594   0.4173   0.4173   5.4839   5.4839

          k =-0.5000-1.0000 0.0000 ( 18796 PWs)   bands (ev):

   -13.7851 -13.7851 -13.5716 -13.5716 -13.4998 -13.4998 -13.4545 -13.4545
   -13.2419 -13.2419   0.4776   0.4776   4.8996   4.8996

     highest occupied level (ev):     8.0625

!    total energy              =    -325.63048750 Ry
     estimated scf accuracy    <       0.00000004 Ry

     The total energy is the sum of the following terms:
     one-electron contribution =    -150.99559262 Ry
     hartree contribution      =      93.25864236 Ry
     xc contribution           =     -95.23410688 Ry
     ewald contribution        =    -172.65943036 Ry

     convergence has been achieved in   6 iterations

     Writing all to output data dir ./alpha-sn-scf/alphatin.save/ :
     XML data file, charge density, pseudopotentials, collected wavefunctions

     init_run     :      0.72s CPU      0.80s WALL (       1 calls)
     electrons    :      0.68s CPU      0.78s WALL (       1 calls)

     Called by init_run:
     wfcinit      :      0.04s CPU      0.05s WALL (       1 calls)
     potinit      :      0.02s CPU      0.04s WALL (       1 calls)
     hinit0       :      0.57s CPU      0.60s WALL (       1 calls)

     Called by electrons:
     c_bands      :      0.36s CPU      0.39s WALL (       7 calls)
     sum_band     :      0.15s CPU      0.17s WALL (       7 calls)
     v_of_rho     :      0.11s CPU      0.12s WALL (       7 calls)
     newd         :      0.04s CPU      0.06s WALL (       7 calls)
     mix_rho      :      0.01s CPU      0.01s WALL (       7 calls)

     Called by c_bands:
     init_us_2    :      0.01s CPU      0.01s WALL (      30 calls)
     cegterg      :      0.34s CPU      0.35s WALL (      14 calls)

     Called by *egterg:
     cdiaghg      :      0.02s CPU      0.02s WALL (      50 calls)
     h_psi        :      0.32s CPU      0.33s WALL (      54 calls)
     s_psi        :      0.01s CPU      0.01s WALL (      54 calls)
     g_psi        :      0.00s CPU      0.00s WALL (      38 calls)

     Called by h_psi:
     h_psi:calbec :      0.01s CPU      0.01s WALL (      54 calls)
     vloc_psi     :      0.30s CPU      0.31s WALL (      54 calls)
     add_vuspsi   :      0.01s CPU      0.01s WALL (      54 calls)

     General routines
     calbec       :      0.01s CPU      0.01s WALL (      68 calls)
     fft          :      0.59s CPU      0.60s WALL (      78 calls)
     ffts         :      0.01s CPU      0.01s WALL (       7 calls)
     fftw         :      0.32s CPU      0.33s WALL (    1194 calls)

     Parallel routines

     PWSCF        :      1.66s CPU      2.11s WALL


   This run was terminated on:  16:32:49   5Feb2026            

=------------------------------------------------------------------------------=
   JOB DONE.
=------------------------------------------------------------------------------=
