
     Program PWSCF v.7.3.1 starts on  5Feb2026 at 16:13:28 

     This program is part of the open-source Quantum ESPRESSO suite
     for quantum simulation of materials; please cite
         "P. Giannozzi et al., J. Phys.:Condens. Matter 21 395502 (2009);
         "P. Giannozzi et al., J. Phys.:Condens. Matter 29 465901 (2017);
         "P. Giannozzi et al., J. Chem. Phys. 152 154105 (2020);
          URL http://www.quantum-espresso.org", 
     in publications or presentations arising from this work. More details at
     http://www.quantum-espresso.org/quote

     Parallel version (MPI), running on   128 processors

     MPI processes distributed on     1 nodes
     241364 MiB available memory on the printing compute node when the environment starts

     Waiting for input...
     Reading input from standard input
     Message from routine read_cards :
     DEPRECATED: no units specified in ATOMIC_POSITIONS card
     Message from routine read_cards :
     ATOMIC_POSITIONS: units set to alat

     Current dimensions of program PWSCF are:
     Max number of different atomic species (ntypx) = 10
     Max number of k-points (npk) =  40000
     Max angular momentum in pseudopotentials (lmaxx) =  4

     K-points division:     npool     =       8
     R & G space division:  proc/nbgrp/npool/nimage =      16
     Subspace diagonalization in iterative solution of the eigenvalue problem:
     a serial algorithm will be used


     Parallelization info
     --------------------
     sticks:   dense  smooth     PW     G-vecs:    dense   smooth      PW
     Min          99      99     28                 2603     2603     393
     Max         100     100     29                 2605     2605     396
     Sum        1585    1585    451                41655    41655    6303

     Using Slab Decomposition



     bravais-lattice index     =            2
     lattice parameter (alat)  =      12.2300  a.u.
     unit-cell volume          =     457.3191 (a.u.)^3
     number of atoms/cell      =            2
     number of atomic types    =            1
     number of electrons       =        28.00
     number of Kohn-Sham states=           14
     kinetic-energy cutoff     =      77.0000  Ry
     charge density cutoff     =     308.0000  Ry
     scf convergence threshold =      1.0E-07
     mixing beta               =       0.7000
     number of iterations used =            8  plain     mixing
     Exchange-correlation=  SLA  PW   GGX  GGC
                           (   1   4   2   2   0   0   0)

     celldm(1)=  12.230000  celldm(2)=   0.000000  celldm(3)=   0.000000
     celldm(4)=   0.000000  celldm(5)=   0.000000  celldm(6)=   0.000000

     crystal axes: (cart. coord. in units of alat)
               a(1) = (  -0.500000   0.000000   0.500000 )  
               a(2) = (   0.000000   0.500000   0.500000 )  
               a(3) = (  -0.500000   0.500000   0.000000 )  

     reciprocal axes: (cart. coord. in units 2 pi/alat)
               b(1) = ( -1.000000 -1.000000  1.000000 )  
               b(2) = (  1.000000  1.000000  1.000000 )  
               b(3) = ( -1.000000  1.000000 -1.000000 )  


     PseudoPot. # 1 for Sn read from file:
     ./Sn.pw91-n-van.UPF
     MD5 check sum: a38d2a872edd1a4efd76c0a1a38f7031
     Pseudo is Ultrasoft + core correction, Zval = 14.0
     Generated by new atomic code, or converted to UPF format
     Using radial grid of  891 points,  6 beta functions with: 
                l(1) =   0
                l(2) =   0
                l(3) =   1
                l(4) =   1
                l(5) =   2
                l(6) =   2
     Q(r) pseudized with  8 coefficients,  rinner =    1.100   1.100   1.100
                                                       1.100   1.100

     atomic species   valence    mass     pseudopotential
     Sn               14.00   118.70000     Sn( 1.00)

     48 Sym. Ops., with inversion, found (24 have fractional translation)



   Cartesian axes

     site n.     atom                  positions (alat units)
         1        Sn     tau(   1) = (   0.0000000   0.0000000   0.0000000  )
         2        Sn     tau(   2) = (   0.2500000   0.2500000   0.2500000  )

     number of k points=     8
                       cart. coord. in units 2pi/alat
        k(    1) = (   0.0000000   0.0000000   0.0000000), wk =   0.0312500
        k(    2) = (  -0.2500000   0.2500000  -0.2500000), wk =   0.2500000
        k(    3) = (   0.5000000  -0.5000000   0.5000000), wk =   0.1250000
        k(    4) = (   0.0000000   0.5000000   0.0000000), wk =   0.1875000
        k(    5) = (   0.7500000  -0.2500000   0.7500000), wk =   0.7500000
        k(    6) = (   0.5000000   0.0000000   0.5000000), wk =   0.3750000
        k(    7) = (   0.0000000  -1.0000000   0.0000000), wk =   0.0937500
        k(    8) = (  -0.5000000  -1.0000000   0.0000000), wk =   0.1875000

     Dense  grid:    41655 G-vectors     FFT dimensions: (  60,  60,  60)

     Estimated max dynamical RAM per process >       4.70 MB

     Estimated total dynamical RAM >     529.87 MB

     Initial potential from superposition of free atoms

     starting charge      27.9964, renormalised to      28.0000
     Starting wfcs are   18 randomized atomic wfcs

     total cpu time spent up to now is        0.8 secs

     per-process dynamical memory:    11.9 Mb

     Self-consistent Calculation

     iteration #  1     ecut=    77.00 Ry     beta= 0.70
     Davidson diagonalization with overlap
     ethr =  1.00E-02,  avg # of iterations =  1.5

     Threshold (ethr) on eigenvalues was too large:
     Diagonalizing with lowered threshold

     Davidson diagonalization with overlap
     ethr =  8.24E-05,  avg # of iterations =  2.1

     total cpu time spent up to now is        1.0 secs

     total energy              =    -325.61231999 Ry
     estimated scf accuracy    <       0.02864058 Ry

     iteration #  2     ecut=    77.00 Ry     beta= 0.70
     Davidson diagonalization with overlap
     ethr =  1.02E-04,  avg # of iterations =  1.0

     total cpu time spent up to now is        1.0 secs

     total energy              =    -325.61331840 Ry
     estimated scf accuracy    <       0.00163661 Ry

     iteration #  3     ecut=    77.00 Ry     beta= 0.70
     Davidson diagonalization with overlap
     ethr =  5.85E-06,  avg # of iterations =  2.1

     total cpu time spent up to now is        1.0 secs

     total energy              =    -325.61345496 Ry
     estimated scf accuracy    <       0.00003919 Ry

     iteration #  4     ecut=    77.00 Ry     beta= 0.70
     Davidson diagonalization with overlap
     ethr =  1.40E-07,  avg # of iterations =  3.6

     total cpu time spent up to now is        1.1 secs

     total energy              =    -325.61346825 Ry
     estimated scf accuracy    <       0.00000334 Ry

     iteration #  5     ecut=    77.00 Ry     beta= 0.70
     Davidson diagonalization with overlap
     ethr =  1.19E-08,  avg # of iterations =  3.6

     total cpu time spent up to now is        1.1 secs

     total energy              =    -325.61346887 Ry
     estimated scf accuracy    <       0.00000033 Ry

     iteration #  6     ecut=    77.00 Ry     beta= 0.70
     Davidson diagonalization with overlap
     ethr =  1.17E-09,  avg # of iterations =  2.2

     total cpu time spent up to now is        1.2 secs

     End of self-consistent calculation

          k = 0.0000 0.0000 0.0000 (  5161 PWs)   bands (ev):

   -13.7024 -13.7024 -13.7024 -13.6451 -13.6451 -13.3255 -13.3255 -13.3255
   -13.3188 -13.3188  -2.6978   7.3384   8.0656   8.0656

          k =-0.2500 0.2500-0.2500 (  5219 PWs)   bands (ev):

   -13.7289 -13.7289 -13.6893 -13.6041 -13.6041 -13.3727 -13.3727 -13.3424
   -13.2801 -13.2801  -2.1059   3.9208   7.3025   7.3025

          k = 0.5000-0.5000 0.5000 (  5210 PWs)   bands (ev):

   -13.7396 -13.7396 -13.6753 -13.5829 -13.5829 -13.3893 -13.3893 -13.3601
   -13.2679 -13.2679  -1.0599   1.6381   6.8452   6.8452

          k = 0.0000 0.5000 0.0000 (  5201 PWs)   bands (ev):

   -13.7307 -13.7307 -13.7071 -13.5964 -13.5460 -13.4590 -13.3656 -13.2964
   -13.2842 -13.2842  -1.8889   3.8063   6.3586   6.3586

          k = 0.7500-0.2500 0.7500 (  5228 PWs)   bands (ev):

   -13.7696 -13.7490 -13.6430 -13.5455 -13.5157 -13.4871 -13.4204 -13.3708
   -13.2559 -13.2349  -0.7119   1.6755   5.0237   6.0414

          k = 0.5000 0.0000 0.5000 (  5238 PWs)   bands (ev):

   -13.7629 -13.7511 -13.6365 -13.5800 -13.5422 -13.4341 -13.4016 -13.3890
   -13.2524 -13.2451  -1.1991   2.3678   4.9344   6.7766

          k = 0.0000-1.0000 0.0000 (  5218 PWs)   bands (ev):

   -13.7549 -13.7549 -13.6189 -13.6189 -13.4801 -13.4801 -13.3938 -13.3938
   -13.2467 -13.2467   0.4202   0.4202   5.4870   5.4870

          k =-0.5000-1.0000 0.0000 (  5220 PWs)   bands (ev):

   -13.7730 -13.7730 -13.5598 -13.5598 -13.4891 -13.4891 -13.4433 -13.4433
   -13.2293 -13.2293   0.4803   0.4803   4.9043   4.9043

     highest occupied level (ev):     8.0656

!    total energy              =    -325.61346892 Ry
     estimated scf accuracy    <       0.00000008 Ry

     The total energy is the sum of the following terms:
     one-electron contribution =    -150.97451150 Ry
     hartree contribution      =      93.25366737 Ry
     xc contribution           =     -95.23319443 Ry
     ewald contribution        =    -172.65943036 Ry

     convergence has been achieved in   6 iterations

     Writing all to output data dir ./alpha-sn-scf/alphatin.save/ :
     XML data file, charge density, pseudopotentials, collected wavefunctions

     init_run     :      0.52s CPU      0.57s WALL (       1 calls)
     electrons    :      0.27s CPU      0.35s WALL (       1 calls)

     Called by init_run:
     wfcinit      :      0.02s CPU      0.02s WALL (       1 calls)
     potinit      :      0.01s CPU      0.03s WALL (       1 calls)
     hinit0       :      0.45s CPU      0.46s WALL (       1 calls)

     Called by electrons:
     c_bands      :      0.12s CPU      0.14s WALL (       7 calls)
     sum_band     :      0.05s CPU      0.07s WALL (       7 calls)
     v_of_rho     :      0.07s CPU      0.09s WALL (       7 calls)
     newd         :      0.02s CPU      0.02s WALL (       7 calls)
     mix_rho      :      0.01s CPU      0.01s WALL (       7 calls)

     Called by c_bands:
     init_us_2    :      0.00s CPU      0.00s WALL (      15 calls)
     cegterg      :      0.11s CPU      0.12s WALL (       7 calls)

     Called by *egterg:
     cdiaghg      :      0.01s CPU      0.01s WALL (      27 calls)
     h_psi        :      0.11s CPU      0.12s WALL (      29 calls)
     s_psi        :      0.00s CPU      0.00s WALL (      29 calls)
     g_psi        :      0.00s CPU      0.00s WALL (      21 calls)

     Called by h_psi:
     h_psi:calbec :      0.01s CPU      0.01s WALL (      29 calls)
     vloc_psi     :      0.10s CPU      0.11s WALL (      29 calls)
     add_vuspsi   :      0.00s CPU      0.00s WALL (      29 calls)

     General routines
     calbec       :      0.00s CPU      0.00s WALL (      36 calls)
     fft          :      0.43s CPU      0.44s WALL (      78 calls)
     ffts         :      0.00s CPU      0.00s WALL (       7 calls)
     fftw         :      0.10s CPU      0.12s WALL (     620 calls)

     Parallel routines

     PWSCF        :      1.02s CPU      1.30s WALL


   This run was terminated on:  16:13:30   5Feb2026            

=------------------------------------------------------------------------------=
   JOB DONE.
=------------------------------------------------------------------------------=
