
     Program PWSCF v.7.3.1 starts on  5Feb2026 at 16: 6: 7 

     This program is part of the open-source Quantum ESPRESSO suite
     for quantum simulation of materials; please cite
         "P. Giannozzi et al., J. Phys.:Condens. Matter 21 395502 (2009);
         "P. Giannozzi et al., J. Phys.:Condens. Matter 29 465901 (2017);
         "P. Giannozzi et al., J. Chem. Phys. 152 154105 (2020);
          URL http://www.quantum-espresso.org", 
     in publications or presentations arising from this work. More details at
     http://www.quantum-espresso.org/quote

     Parallel version (MPI), running on   128 processors

     MPI processes distributed on     1 nodes
     241345 MiB available memory on the printing compute node when the environment starts

     Waiting for input...
     Reading input from standard input
     Message from routine read_cards :
     DEPRECATED: no units specified in ATOMIC_POSITIONS card
     Message from routine read_cards :
     ATOMIC_POSITIONS: units set to alat

     Current dimensions of program PWSCF are:
     Max number of different atomic species (ntypx) = 10
     Max number of k-points (npk) =  40000
     Max angular momentum in pseudopotentials (lmaxx) =  4

     K-points division:     npool     =       8
     R & G space division:  proc/nbgrp/npool/nimage =      16
     Subspace diagonalization in iterative solution of the eigenvalue problem:
     a serial algorithm will be used


     Parallelization info
     --------------------
     sticks:   dense  smooth     PW     G-vecs:    dense   smooth      PW
     Min          42      42     12                  735      735     118
     Max          43      43     13                  740      740     122
     Sum         673     673    199                11791    11791    1917

     Using Slab Decomposition



     bravais-lattice index     =            2
     lattice parameter (alat)  =      12.2300  a.u.
     unit-cell volume          =     457.3191 (a.u.)^3
     number of atoms/cell      =            2
     number of atomic types    =            1
     number of electrons       =        28.00
     number of Kohn-Sham states=           14
     kinetic-energy cutoff     =      33.0000  Ry
     charge density cutoff     =     132.0000  Ry
     scf convergence threshold =      1.0E-07
     mixing beta               =       0.7000
     number of iterations used =            8  plain     mixing
     Exchange-correlation=  SLA  PW   GGX  GGC
                           (   1   4   2   2   0   0   0)

     celldm(1)=  12.230000  celldm(2)=   0.000000  celldm(3)=   0.000000
     celldm(4)=   0.000000  celldm(5)=   0.000000  celldm(6)=   0.000000

     crystal axes: (cart. coord. in units of alat)
               a(1) = (  -0.500000   0.000000   0.500000 )  
               a(2) = (   0.000000   0.500000   0.500000 )  
               a(3) = (  -0.500000   0.500000   0.000000 )  

     reciprocal axes: (cart. coord. in units 2 pi/alat)
               b(1) = ( -1.000000 -1.000000  1.000000 )  
               b(2) = (  1.000000  1.000000  1.000000 )  
               b(3) = ( -1.000000  1.000000 -1.000000 )  


     PseudoPot. # 1 for Sn read from file:
     ./Sn.pw91-n-van.UPF
     MD5 check sum: a38d2a872edd1a4efd76c0a1a38f7031
     Pseudo is Ultrasoft + core correction, Zval = 14.0
     Generated by new atomic code, or converted to UPF format
     Using radial grid of  891 points,  6 beta functions with: 
                l(1) =   0
                l(2) =   0
                l(3) =   1
                l(4) =   1
                l(5) =   2
                l(6) =   2
     Q(r) pseudized with  8 coefficients,  rinner =    1.100   1.100   1.100
                                                       1.100   1.100

     atomic species   valence    mass     pseudopotential
     Sn               14.00   118.70000     Sn( 1.00)

     48 Sym. Ops., with inversion, found (24 have fractional translation)



   Cartesian axes

     site n.     atom                  positions (alat units)
         1        Sn     tau(   1) = (   0.0000000   0.0000000   0.0000000  )
         2        Sn     tau(   2) = (   0.2500000   0.2500000   0.2500000  )

     number of k points=     8
                       cart. coord. in units 2pi/alat
        k(    1) = (   0.0000000   0.0000000   0.0000000), wk =   0.0312500
        k(    2) = (  -0.2500000   0.2500000  -0.2500000), wk =   0.2500000
        k(    3) = (   0.5000000  -0.5000000   0.5000000), wk =   0.1250000
        k(    4) = (   0.0000000   0.5000000   0.0000000), wk =   0.1875000
        k(    5) = (   0.7500000  -0.2500000   0.7500000), wk =   0.7500000
        k(    6) = (   0.5000000   0.0000000   0.5000000), wk =   0.3750000
        k(    7) = (   0.0000000  -1.0000000   0.0000000), wk =   0.0937500
        k(    8) = (  -0.5000000  -1.0000000   0.0000000), wk =   0.1875000

     Dense  grid:    11791 G-vectors     FFT dimensions: (  32,  32,  32)

     Estimated max dynamical RAM per process >       1.71 MB

     Estimated total dynamical RAM >     199.10 MB

     Initial potential from superposition of free atoms

     starting charge      27.9964, renormalised to      28.0000
     Starting wfcs are   18 randomized atomic wfcs

     total cpu time spent up to now is        0.6 secs

     per-process dynamical memory:     9.1 Mb

     Self-consistent Calculation

     iteration #  1     ecut=    33.00 Ry     beta= 0.70
     Davidson diagonalization with overlap
     ethr =  1.00E-02,  avg # of iterations =  1.4

     Threshold (ethr) on eigenvalues was too large:
     Diagonalizing with lowered threshold

     Davidson diagonalization with overlap
     ethr =  8.43E-05,  avg # of iterations =  2.1

     negative rho (up, down):  1.266E-05 0.000E+00

     total cpu time spent up to now is        0.6 secs

     total energy              =    -325.58869354 Ry
     estimated scf accuracy    <       0.02882390 Ry

     iteration #  2     ecut=    33.00 Ry     beta= 0.70
     Davidson diagonalization with overlap
     ethr =  1.03E-04,  avg # of iterations =  1.0

     negative rho (up, down):  9.324E-05 0.000E+00

     total cpu time spent up to now is        0.6 secs

     total energy              =    -325.58968752 Ry
     estimated scf accuracy    <       0.00164665 Ry

     iteration #  3     ecut=    33.00 Ry     beta= 0.70
     Davidson diagonalization with overlap
     ethr =  5.88E-06,  avg # of iterations =  2.1

     negative rho (up, down):  1.162E-04 0.000E+00

     total cpu time spent up to now is        0.6 secs

     total energy              =    -325.58981795 Ry
     estimated scf accuracy    <       0.00003635 Ry

     iteration #  4     ecut=    33.00 Ry     beta= 0.70
     Davidson diagonalization with overlap
     ethr =  1.30E-07,  avg # of iterations =  3.4

     negative rho (up, down):  1.300E-04 0.000E+00

     total cpu time spent up to now is        0.7 secs

     total energy              =    -325.58982943 Ry
     estimated scf accuracy    <       0.00000303 Ry

     iteration #  5     ecut=    33.00 Ry     beta= 0.70
     Davidson diagonalization with overlap
     ethr =  1.08E-08,  avg # of iterations =  3.8

     negative rho (up, down):  1.284E-04 0.000E+00

     total cpu time spent up to now is        0.7 secs

     total energy              =    -325.58983015 Ry
     estimated scf accuracy    <       0.00000028 Ry

     iteration #  6     ecut=    33.00 Ry     beta= 0.70
     Davidson diagonalization with overlap
     ethr =  1.02E-09,  avg # of iterations =  2.5

     negative rho (up, down):  1.294E-04 0.000E+00

     total cpu time spent up to now is        0.7 secs

     End of self-consistent calculation

          k = 0.0000 0.0000 0.0000 (  1459 PWs)   bands (ev):

   -13.6903 -13.6903 -13.6903 -13.6291 -13.6291 -13.3140 -13.3140 -13.3140
   -13.3030 -13.3030  -2.7006   7.3308   8.0657   8.0657

          k =-0.2500 0.2500-0.2500 (  1453 PWs)   bands (ev):

   -13.7164 -13.7164 -13.6770 -13.5886 -13.5886 -13.3578 -13.3578 -13.3311
   -13.2677 -13.2677  -2.1087   3.9179   7.3024   7.3024

          k = 0.5000-0.5000 0.5000 (  1476 PWs)   bands (ev):

   -13.7275 -13.7275 -13.6639 -13.5678 -13.5678 -13.3735 -13.3735 -13.3495
   -13.2570 -13.2570  -1.0628   1.6355   6.8450   6.8450

          k = 0.0000 0.5000 0.0000 (  1475 PWs)   bands (ev):

   -13.7189 -13.7189 -13.6937 -13.5809 -13.5314 -13.4455 -13.3505 -13.2822
   -13.2741 -13.2741  -1.8918   3.8029   6.3583   6.3583

          k = 0.7500-0.2500 0.7500 (  1467 PWs)   bands (ev):

   -13.7576 -13.7374 -13.6304 -13.5297 -13.5014 -13.4737 -13.4048 -13.3571
   -13.2451 -13.2237  -0.7147   1.6726   5.0227   6.0410

          k = 0.5000 0.0000 0.5000 (  1464 PWs)   bands (ev):

   -13.7510 -13.7388 -13.6248 -13.5646 -13.5270 -13.4187 -13.3904 -13.3732
   -13.2404 -13.2343  -1.2020   2.3648   4.9335   6.7764

          k = 0.0000-1.0000 0.0000 (  1476 PWs)   bands (ev):

   -13.7436 -13.7436 -13.6059 -13.6059 -13.4644 -13.4644 -13.3797 -13.3797
   -13.2365 -13.2365   0.4173   0.4173   5.4865   5.4865

          k =-0.5000-1.0000 0.0000 (  1448 PWs)   bands (ev):

   -13.7608 -13.7608 -13.5467 -13.5467 -13.4734 -13.4734 -13.4288 -13.4288
   -13.2178 -13.2178   0.4774   0.4774   4.9035   4.9035

     highest occupied level (ev):     8.0657

!    total energy              =    -325.58983018 Ry
     estimated scf accuracy    <       0.00000009 Ry

     The total energy is the sum of the following terms:
     one-electron contribution =    -150.94265838 Ry
     hartree contribution      =      93.24755803 Ry
     xc contribution           =     -95.23529945 Ry
     ewald contribution        =    -172.65943038 Ry

     convergence has been achieved in   6 iterations

     Writing all to output data dir ./alpha-sn-scf/alphatin.save/ :
     XML data file, charge density, pseudopotentials, collected wavefunctions

     init_run     :      0.22s CPU      0.27s WALL (       1 calls)
     electrons    :      0.10s CPU      0.13s WALL (       1 calls)

     Called by init_run:
     wfcinit      :      0.02s CPU      0.03s WALL (       1 calls)
     potinit      :      0.02s CPU      0.02s WALL (       1 calls)
     hinit0       :      0.17s CPU      0.18s WALL (       1 calls)

     Called by electrons:
     c_bands      :      0.04s CPU      0.05s WALL (       7 calls)
     sum_band     :      0.02s CPU      0.03s WALL (       7 calls)
     v_of_rho     :      0.02s CPU      0.03s WALL (       7 calls)
     newd         :      0.01s CPU      0.01s WALL (       7 calls)
     mix_rho      :      0.00s CPU      0.00s WALL (       7 calls)

     Called by c_bands:
     init_us_2    :      0.00s CPU      0.00s WALL (      15 calls)
     cegterg      :      0.03s CPU      0.04s WALL (       7 calls)

     Called by *egterg:
     cdiaghg      :      0.01s CPU      0.01s WALL (      28 calls)
     h_psi        :      0.04s CPU      0.05s WALL (      30 calls)
     s_psi        :      0.00s CPU      0.00s WALL (      30 calls)
     g_psi        :      0.00s CPU      0.00s WALL (      22 calls)

     Called by h_psi:
     h_psi:calbec :      0.00s CPU      0.00s WALL (      30 calls)
     vloc_psi     :      0.04s CPU      0.04s WALL (      30 calls)
     add_vuspsi   :      0.00s CPU      0.00s WALL (      30 calls)

     General routines
     calbec       :      0.00s CPU      0.00s WALL (      37 calls)
     fft          :      0.16s CPU      0.16s WALL (      78 calls)
     ffts         :      0.00s CPU      0.00s WALL (       7 calls)
     fftw         :      0.04s CPU      0.05s WALL (     628 calls)

     Parallel routines

     PWSCF        :      0.52s CPU      0.77s WALL


   This run was terminated on:  16: 6: 7   5Feb2026            

=------------------------------------------------------------------------------=
   JOB DONE.
=------------------------------------------------------------------------------=
