
     Program PWSCF v.7.3.1 starts on  5Feb2026 at 16:23:20 

     This program is part of the open-source Quantum ESPRESSO suite
     for quantum simulation of materials; please cite
         "P. Giannozzi et al., J. Phys.:Condens. Matter 21 395502 (2009);
         "P. Giannozzi et al., J. Phys.:Condens. Matter 29 465901 (2017);
         "P. Giannozzi et al., J. Chem. Phys. 152 154105 (2020);
          URL http://www.quantum-espresso.org", 
     in publications or presentations arising from this work. More details at
     http://www.quantum-espresso.org/quote

     Parallel version (MPI), running on   128 processors

     MPI processes distributed on     1 nodes
     241349 MiB available memory on the printing compute node when the environment starts

     Waiting for input...
     Reading input from standard input
     Message from routine read_cards :
     DEPRECATED: no units specified in ATOMIC_POSITIONS card
     Message from routine read_cards :
     ATOMIC_POSITIONS: units set to alat

     Current dimensions of program PWSCF are:
     Max number of different atomic species (ntypx) = 10
     Max number of k-points (npk) =  40000
     Max angular momentum in pseudopotentials (lmaxx) =  4

     K-points division:     npool     =       4
     R & G space division:  proc/nbgrp/npool/nimage =      32
     Subspace diagonalization in iterative solution of the eigenvalue problem:
     a serial algorithm will be used


     Parallelization info
     --------------------
     sticks:   dense  smooth     PW     G-vecs:    dense   smooth      PW
     Min          84      84     23                 2897     2897     419
     Max          85      85     24                 2900     2900     422
     Sum        2713    2713    745                92769    92769   13443

     Using Slab Decomposition



     bravais-lattice index     =            2
     lattice parameter (alat)  =      12.2300  a.u.
     unit-cell volume          =     457.3191 (a.u.)^3
     number of atoms/cell      =            2
     number of atomic types    =            1
     number of electrons       =        28.00
     number of Kohn-Sham states=           14
     kinetic-energy cutoff     =     131.0000  Ry
     charge density cutoff     =     524.0000  Ry
     scf convergence threshold =      1.0E-07
     mixing beta               =       0.7000
     number of iterations used =            8  plain     mixing
     Exchange-correlation=  SLA  PW   GGX  GGC
                           (   1   4   2   2   0   0   0)

     celldm(1)=  12.230000  celldm(2)=   0.000000  celldm(3)=   0.000000
     celldm(4)=   0.000000  celldm(5)=   0.000000  celldm(6)=   0.000000

     crystal axes: (cart. coord. in units of alat)
               a(1) = (  -0.500000   0.000000   0.500000 )  
               a(2) = (   0.000000   0.500000   0.500000 )  
               a(3) = (  -0.500000   0.500000   0.000000 )  

     reciprocal axes: (cart. coord. in units 2 pi/alat)
               b(1) = ( -1.000000 -1.000000  1.000000 )  
               b(2) = (  1.000000  1.000000  1.000000 )  
               b(3) = ( -1.000000  1.000000 -1.000000 )  


     PseudoPot. # 1 for Sn read from file:
     ./Sn.pw91-n-van.UPF
     MD5 check sum: a38d2a872edd1a4efd76c0a1a38f7031
     Pseudo is Ultrasoft + core correction, Zval = 14.0
     Generated by new atomic code, or converted to UPF format
     Using radial grid of  891 points,  6 beta functions with: 
                l(1) =   0
                l(2) =   0
                l(3) =   1
                l(4) =   1
                l(5) =   2
                l(6) =   2
     Q(r) pseudized with  8 coefficients,  rinner =    1.100   1.100   1.100
                                                       1.100   1.100

     atomic species   valence    mass     pseudopotential
     Sn               14.00   118.70000     Sn( 1.00)

     48 Sym. Ops., with inversion, found (24 have fractional translation)



   Cartesian axes

     site n.     atom                  positions (alat units)
         1        Sn     tau(   1) = (   0.0000000   0.0000000   0.0000000  )
         2        Sn     tau(   2) = (   0.2500000   0.2500000   0.2500000  )

     number of k points=     8
                       cart. coord. in units 2pi/alat
        k(    1) = (   0.0000000   0.0000000   0.0000000), wk =   0.0312500
        k(    2) = (  -0.2500000   0.2500000  -0.2500000), wk =   0.2500000
        k(    3) = (   0.5000000  -0.5000000   0.5000000), wk =   0.1250000
        k(    4) = (   0.0000000   0.5000000   0.0000000), wk =   0.1875000
        k(    5) = (   0.7500000  -0.2500000   0.7500000), wk =   0.7500000
        k(    6) = (   0.5000000   0.0000000   0.5000000), wk =   0.3750000
        k(    7) = (   0.0000000  -1.0000000   0.0000000), wk =   0.0937500
        k(    8) = (  -0.5000000  -1.0000000   0.0000000), wk =   0.1875000

     Dense  grid:    92769 G-vectors     FFT dimensions: (  64,  64,  64)

     Estimated max dynamical RAM per process >       6.14 MB

     Estimated total dynamical RAM >     718.56 MB

     Initial potential from superposition of free atoms

     starting charge      27.9964, renormalised to      28.0000
     Starting wfcs are   18 randomized atomic wfcs

     total cpu time spent up to now is        0.8 secs

     per-process dynamical memory:    12.0 Mb

     Self-consistent Calculation

     iteration #  1     ecut=   131.00 Ry     beta= 0.70
     Davidson diagonalization with overlap
     ethr =  1.00E-02,  avg # of iterations =  1.9

     Threshold (ethr) on eigenvalues was too large:
     Diagonalizing with lowered threshold

     Davidson diagonalization with overlap
     ethr =  8.68E-05,  avg # of iterations =  2.1

     total cpu time spent up to now is        0.9 secs

     total energy              =    -325.62217164 Ry
     estimated scf accuracy    <       0.02935832 Ry

     iteration #  2     ecut=   131.00 Ry     beta= 0.70
     Davidson diagonalization with overlap
     ethr =  1.05E-04,  avg # of iterations =  1.0

     total cpu time spent up to now is        1.0 secs

     total energy              =    -325.62383490 Ry
     estimated scf accuracy    <       0.00149091 Ry

     iteration #  3     ecut=   131.00 Ry     beta= 0.70
     Davidson diagonalization with overlap
     ethr =  5.32E-06,  avg # of iterations =  2.2

     total cpu time spent up to now is        1.0 secs

     total energy              =    -325.62397730 Ry
     estimated scf accuracy    <       0.00003317 Ry

     iteration #  4     ecut=   131.00 Ry     beta= 0.70
     Davidson diagonalization with overlap
     ethr =  1.18E-07,  avg # of iterations =  3.5

     total cpu time spent up to now is        1.1 secs

     total energy              =    -325.62398699 Ry
     estimated scf accuracy    <       0.00000259 Ry

     iteration #  5     ecut=   131.00 Ry     beta= 0.70
     Davidson diagonalization with overlap
     ethr =  9.26E-09,  avg # of iterations =  3.5

     total cpu time spent up to now is        1.2 secs

     total energy              =    -325.62398743 Ry
     estimated scf accuracy    <       0.00000014 Ry

     iteration #  6     ecut=   131.00 Ry     beta= 0.70
     Davidson diagonalization with overlap
     ethr =  5.01E-10,  avg # of iterations =  2.9

     total cpu time spent up to now is        1.2 secs

     End of self-consistent calculation

          k = 0.0000 0.0000 0.0000 ( 11575 PWs)   bands (ev):

   -13.7107 -13.7107 -13.7107 -13.6513 -13.6513 -13.3337 -13.3337 -13.3337
   -13.3253 -13.3253  -2.7005   7.3363   8.0634   8.0634

          k =-0.2500 0.2500-0.2500 ( 11570 PWs)   bands (ev):

   -13.7369 -13.7369 -13.6974 -13.6105 -13.6105 -13.3796 -13.3796 -13.3507
   -13.2879 -13.2879  -2.1085   3.9183   7.3003   7.3003

          k = 0.5000-0.5000 0.5000 ( 11618 PWs)   bands (ev):

   -13.7476 -13.7476 -13.6836 -13.5894 -13.5894 -13.3958 -13.3958 -13.3684
   -13.2763 -13.2763  -1.0620   1.6349   6.8431   6.8431

          k = 0.0000 0.5000 0.0000 ( 11602 PWs)   bands (ev):

   -13.7388 -13.7388 -13.7147 -13.6028 -13.5530 -13.4665 -13.3721 -13.3037
   -13.2926 -13.2926  -1.8915   3.8043   6.3561   6.3561

          k = 0.7500-0.2500 0.7500 ( 11578 PWs)   bands (ev):

   -13.7776 -13.7570 -13.6508 -13.5519 -13.5228 -13.4945 -13.4268 -13.3781
   -13.2642 -13.2431  -0.7141   1.6732   5.0195   6.0390

          k = 0.5000 0.0000 0.5000 ( 11548 PWs)   bands (ev):

   -13.7710 -13.7589 -13.6446 -13.5863 -13.5487 -13.4407 -13.4097 -13.3956
   -13.2603 -13.2534  -1.2015   2.3656   4.9300   6.7744

          k = 0.0000-1.0000 0.0000 ( 11574 PWs)   bands (ev):

   -13.7630 -13.7630 -13.6264 -13.6264 -13.4864 -13.4864 -13.4011 -13.4011
   -13.2550 -13.2550   0.4180   0.4180   5.4845   5.4845

          k =-0.5000-1.0000 0.0000 ( 11556 PWs)   bands (ev):

   -13.7811 -13.7811 -13.5673 -13.5673 -13.4956 -13.4956 -13.4503 -13.4503
   -13.2374 -13.2374   0.4783   0.4783   4.9001   4.9001

     highest occupied level (ev):     8.0634

!    total energy              =    -325.62398746 Ry
     estimated scf accuracy    <       0.00000003 Ry

     The total energy is the sum of the following terms:
     one-electron contribution =    -150.98486541 Ry
     hartree contribution      =      93.25326340 Ry
     xc contribution           =     -95.23295509 Ry
     ewald contribution        =    -172.65943036 Ry

     convergence has been achieved in   6 iterations

     Writing all to output data dir ./alpha-sn-scf/alphatin.save/ :
     XML data file, charge density, pseudopotentials, collected wavefunctions

     init_run     :      0.43s CPU      0.50s WALL (       1 calls)
     electrons    :      0.39s CPU      0.46s WALL (       1 calls)

     Called by init_run:
     wfcinit      :      0.07s CPU      0.08s WALL (       1 calls)
     potinit      :      0.02s CPU      0.03s WALL (       1 calls)
     hinit0       :      0.29s CPU      0.31s WALL (       1 calls)

     Called by electrons:
     c_bands      :      0.21s CPU      0.23s WALL (       7 calls)
     sum_band     :      0.08s CPU      0.09s WALL (       7 calls)
     v_of_rho     :      0.06s CPU      0.06s WALL (       7 calls)
     newd         :      0.03s CPU      0.04s WALL (       7 calls)
     mix_rho      :      0.01s CPU      0.01s WALL (       7 calls)

     Called by c_bands:
     init_us_2    :      0.00s CPU      0.01s WALL (      30 calls)
     cegterg      :      0.20s CPU      0.21s WALL (      14 calls)

     Called by *egterg:
     cdiaghg      :      0.02s CPU      0.02s WALL (      56 calls)
     h_psi        :      0.22s CPU      0.23s WALL (      60 calls)
     s_psi        :      0.00s CPU      0.00s WALL (      60 calls)
     g_psi        :      0.00s CPU      0.00s WALL (      44 calls)

     Called by h_psi:
     h_psi:calbec :      0.01s CPU      0.01s WALL (      60 calls)
     vloc_psi     :      0.20s CPU      0.21s WALL (      60 calls)
     add_vuspsi   :      0.00s CPU      0.00s WALL (      60 calls)

     General routines
     calbec       :      0.01s CPU      0.01s WALL (      74 calls)
     fft          :      0.29s CPU      0.29s WALL (      78 calls)
     ffts         :      0.00s CPU      0.00s WALL (       7 calls)
     fftw         :      0.21s CPU      0.22s WALL (    1250 calls)

     Parallel routines

     PWSCF        :      1.07s CPU      1.37s WALL


   This run was terminated on:  16:23:21   5Feb2026            

=------------------------------------------------------------------------------=
   JOB DONE.
=------------------------------------------------------------------------------=
