
     Program PWSCF v.7.3.1 starts on  5Feb2026 at 16:30:52 

     This program is part of the open-source Quantum ESPRESSO suite
     for quantum simulation of materials; please cite
         "P. Giannozzi et al., J. Phys.:Condens. Matter 21 395502 (2009);
         "P. Giannozzi et al., J. Phys.:Condens. Matter 29 465901 (2017);
         "P. Giannozzi et al., J. Chem. Phys. 152 154105 (2020);
          URL http://www.quantum-espresso.org", 
     in publications or presentations arising from this work. More details at
     http://www.quantum-espresso.org/quote

     Parallel version (MPI), running on   128 processors

     MPI processes distributed on     1 nodes
     241367 MiB available memory on the printing compute node when the environment starts

     Waiting for input...
     Reading input from standard input
     Message from routine read_cards :
     DEPRECATED: no units specified in ATOMIC_POSITIONS card
     Message from routine read_cards :
     ATOMIC_POSITIONS: units set to alat

     Current dimensions of program PWSCF are:
     Max number of different atomic species (ntypx) = 10
     Max number of k-points (npk) =  40000
     Max angular momentum in pseudopotentials (lmaxx) =  4

     K-points division:     npool     =       4
     R & G space division:  proc/nbgrp/npool/nimage =      32
     Subspace diagonalization in iterative solution of the eigenvalue problem:
     a serial algorithm will be used


     Parallelization info
     --------------------
     sticks:   dense  smooth     PW     G-vecs:    dense   smooth      PW
     Min         109     109     29                 4306     4306     609
     Max         110     110     30                 4310     4310     614
     Sum        3505    3505    955               137867   137867   19603

     Using Slab Decomposition



     bravais-lattice index     =            2
     lattice parameter (alat)  =      12.2300  a.u.
     unit-cell volume          =     457.3191 (a.u.)^3
     number of atoms/cell      =            2
     number of atomic types    =            1
     number of electrons       =        28.00
     number of Kohn-Sham states=           14
     kinetic-energy cutoff     =     171.0000  Ry
     charge density cutoff     =     684.0000  Ry
     scf convergence threshold =      1.0E-07
     mixing beta               =       0.7000
     number of iterations used =            8  plain     mixing
     Exchange-correlation=  SLA  PW   GGX  GGC
                           (   1   4   2   2   0   0   0)

     celldm(1)=  12.230000  celldm(2)=   0.000000  celldm(3)=   0.000000
     celldm(4)=   0.000000  celldm(5)=   0.000000  celldm(6)=   0.000000

     crystal axes: (cart. coord. in units of alat)
               a(1) = (  -0.500000   0.000000   0.500000 )  
               a(2) = (   0.000000   0.500000   0.500000 )  
               a(3) = (  -0.500000   0.500000   0.000000 )  

     reciprocal axes: (cart. coord. in units 2 pi/alat)
               b(1) = ( -1.000000 -1.000000  1.000000 )  
               b(2) = (  1.000000  1.000000  1.000000 )  
               b(3) = ( -1.000000  1.000000 -1.000000 )  


     PseudoPot. # 1 for Sn read from file:
     ./Sn.pw91-n-van.UPF
     MD5 check sum: a38d2a872edd1a4efd76c0a1a38f7031
     Pseudo is Ultrasoft + core correction, Zval = 14.0
     Generated by new atomic code, or converted to UPF format
     Using radial grid of  891 points,  6 beta functions with: 
                l(1) =   0
                l(2) =   0
                l(3) =   1
                l(4) =   1
                l(5) =   2
                l(6) =   2
     Q(r) pseudized with  8 coefficients,  rinner =    1.100   1.100   1.100
                                                       1.100   1.100

     atomic species   valence    mass     pseudopotential
     Sn               14.00   118.70000     Sn( 1.00)

     48 Sym. Ops., with inversion, found (24 have fractional translation)



   Cartesian axes

     site n.     atom                  positions (alat units)
         1        Sn     tau(   1) = (   0.0000000   0.0000000   0.0000000  )
         2        Sn     tau(   2) = (   0.2500000   0.2500000   0.2500000  )

     number of k points=     8
                       cart. coord. in units 2pi/alat
        k(    1) = (   0.0000000   0.0000000   0.0000000), wk =   0.0312500
        k(    2) = (  -0.2500000   0.2500000  -0.2500000), wk =   0.2500000
        k(    3) = (   0.5000000  -0.5000000   0.5000000), wk =   0.1250000
        k(    4) = (   0.0000000   0.5000000   0.0000000), wk =   0.1875000
        k(    5) = (   0.7500000  -0.2500000   0.7500000), wk =   0.7500000
        k(    6) = (   0.5000000   0.0000000   0.5000000), wk =   0.3750000
        k(    7) = (   0.0000000  -1.0000000   0.0000000), wk =   0.0937500
        k(    8) = (  -0.5000000  -1.0000000   0.0000000), wk =   0.1875000

     Dense  grid:   137867 G-vectors     FFT dimensions: (  72,  72,  72)

     Estimated max dynamical RAM per process >       8.74 MB

     Estimated total dynamical RAM >    1017.50 MB

     Initial potential from superposition of free atoms

     starting charge      27.9964, renormalised to      28.0000
     Starting wfcs are   18 randomized atomic wfcs

     total cpu time spent up to now is        1.1 secs

     per-process dynamical memory:    14.8 Mb

     Self-consistent Calculation

     iteration #  1     ecut=   171.00 Ry     beta= 0.70
     Davidson diagonalization with overlap
     ethr =  1.00E-02,  avg # of iterations =  2.0

     Threshold (ethr) on eigenvalues was too large:
     Diagonalizing with lowered threshold

     Davidson diagonalization with overlap
     ethr =  9.02E-05,  avg # of iterations =  2.0

     total cpu time spent up to now is        1.3 secs

     total energy              =    -325.62404420 Ry
     estimated scf accuracy    <       0.02937029 Ry

     iteration #  2     ecut=   171.00 Ry     beta= 0.70
     Davidson diagonalization with overlap
     ethr =  1.05E-04,  avg # of iterations =  1.5

     negative rho (up, down):  1.475E-06 0.000E+00

     total cpu time spent up to now is        1.3 secs

     total energy              =    -325.62820956 Ry
     estimated scf accuracy    <       0.00159592 Ry

     iteration #  3     ecut=   171.00 Ry     beta= 0.70
     Davidson diagonalization with overlap
     ethr =  5.70E-06,  avg # of iterations =  2.4

     negative rho (up, down):  3.843E-06 0.000E+00

     total cpu time spent up to now is        1.4 secs

     total energy              =    -325.62844806 Ry
     estimated scf accuracy    <       0.00005905 Ry

     iteration #  4     ecut=   171.00 Ry     beta= 0.70
     Davidson diagonalization with overlap
     ethr =  2.11E-07,  avg # of iterations =  2.9

     negative rho (up, down):  5.294E-06 0.000E+00

     total cpu time spent up to now is        1.5 secs

     total energy              =    -325.62847082 Ry
     estimated scf accuracy    <       0.00000463 Ry

     iteration #  5     ecut=   171.00 Ry     beta= 0.70
     Davidson diagonalization with overlap
     ethr =  1.65E-08,  avg # of iterations =  3.4

     negative rho (up, down):  5.180E-06 0.000E+00

     total cpu time spent up to now is        1.6 secs

     total energy              =    -325.62847130 Ry
     estimated scf accuracy    <       0.00000081 Ry

     iteration #  6     ecut=   171.00 Ry     beta= 0.70
     Davidson diagonalization with overlap
     ethr =  2.89E-09,  avg # of iterations =  2.8

     negative rho (up, down):  5.170E-06 0.000E+00

     total cpu time spent up to now is        1.7 secs

     End of self-consistent calculation

          k = 0.0000 0.0000 0.0000 ( 17153 PWs)   bands (ev):

   -13.7135 -13.7135 -13.7135 -13.6546 -13.6546 -13.3373 -13.3373 -13.3373
   -13.3284 -13.3284  -2.7012   7.3357   8.0626   8.0626

          k =-0.2500 0.2500-0.2500 ( 17240 PWs)   bands (ev):

   -13.7400 -13.7400 -13.7006 -13.6138 -13.6138 -13.3829 -13.3829 -13.3542
   -13.2914 -13.2914  -2.1092   3.9176   7.2996   7.2996

          k = 0.5000-0.5000 0.5000 ( 17244 PWs)   bands (ev):

   -13.7508 -13.7508 -13.6866 -13.5925 -13.5925 -13.3991 -13.3991 -13.3718
   -13.2797 -13.2797  -1.0627   1.6343   6.8424   6.8424

          k = 0.0000 0.5000 0.0000 ( 17217 PWs)   bands (ev):

   -13.7419 -13.7419 -13.7177 -13.6060 -13.5561 -13.4697 -13.3753 -13.3070
   -13.2961 -13.2961  -1.8922   3.8036   6.3555   6.3555

          k = 0.7500-0.2500 0.7500 ( 17272 PWs)   bands (ev):

   -13.7807 -13.7602 -13.6539 -13.5552 -13.5260 -13.4978 -13.4302 -13.3816
   -13.2678 -13.2467  -0.7148   1.6725   5.0189   6.0383

          k = 0.5000 0.0000 0.5000 ( 17268 PWs)   bands (ev):

   -13.7741 -13.7621 -13.6479 -13.5897 -13.5519 -13.4442 -13.4132 -13.3989
   -13.2639 -13.2570  -1.2022   2.3649   4.9294   6.7737

          k = 0.0000-1.0000 0.0000 ( 17246 PWs)   bands (ev):

   -13.7661 -13.7661 -13.6295 -13.6295 -13.4897 -13.4897 -13.4043 -13.4043
   -13.2587 -13.2587   0.4173   0.4173   5.4839   5.4839

          k =-0.5000-1.0000 0.0000 ( 17308 PWs)   bands (ev):

   -13.7842 -13.7842 -13.5708 -13.5708 -13.4990 -13.4990 -13.4536 -13.4536
   -13.2412 -13.2412   0.4776   0.4776   4.8995   4.8995

     highest occupied level (ev):     8.0626

!    total energy              =    -325.62847138 Ry
     estimated scf accuracy    <       0.00000002 Ry

     The total energy is the sum of the following terms:
     one-electron contribution =    -150.99239177 Ry
     hartree contribution      =      93.25711505 Ry
     xc contribution           =     -95.23376430 Ry
     ewald contribution        =    -172.65943036 Ry

     convergence has been achieved in   6 iterations

     Writing all to output data dir ./alpha-sn-scf/alphatin.save/ :
     XML data file, charge density, pseudopotentials, collected wavefunctions

     init_run     :      0.73s CPU      0.79s WALL (       1 calls)
     electrons    :      0.61s CPU      0.68s WALL (       1 calls)

     Called by init_run:
     wfcinit      :      0.04s CPU      0.05s WALL (       1 calls)
     potinit      :      0.03s CPU      0.04s WALL (       1 calls)
     hinit0       :      0.58s CPU      0.60s WALL (       1 calls)

     Called by electrons:
     c_bands      :      0.32s CPU      0.34s WALL (       7 calls)
     sum_band     :      0.12s CPU      0.14s WALL (       7 calls)
     v_of_rho     :      0.10s CPU      0.11s WALL (       7 calls)
     newd         :      0.04s CPU      0.05s WALL (       7 calls)
     mix_rho      :      0.01s CPU      0.01s WALL (       7 calls)

     Called by c_bands:
     init_us_2    :      0.01s CPU      0.01s WALL (      30 calls)
     cegterg      :      0.29s CPU      0.31s WALL (      14 calls)

     Called by *egterg:
     cdiaghg      :      0.02s CPU      0.02s WALL (      53 calls)
     h_psi        :      0.28s CPU      0.29s WALL (      57 calls)
     s_psi        :      0.01s CPU      0.01s WALL (      57 calls)
     g_psi        :      0.00s CPU      0.00s WALL (      41 calls)

     Called by h_psi:
     h_psi:calbec :      0.01s CPU      0.01s WALL (      57 calls)
     vloc_psi     :      0.26s CPU      0.27s WALL (      57 calls)
     add_vuspsi   :      0.01s CPU      0.01s WALL (      57 calls)

     General routines
     calbec       :      0.01s CPU      0.01s WALL (      71 calls)
     fft          :      0.59s CPU      0.60s WALL (      78 calls)
     ffts         :      0.00s CPU      0.00s WALL (       7 calls)
     fftw         :      0.27s CPU      0.28s WALL (    1210 calls)

     Parallel routines

     PWSCF        :      1.58s CPU      1.89s WALL


   This run was terminated on:  16:30:54   5Feb2026            

=------------------------------------------------------------------------------=
   JOB DONE.
=------------------------------------------------------------------------------=
