
     Program PWSCF v.7.3.1 starts on  5Feb2026 at 16:23: 0 

     This program is part of the open-source Quantum ESPRESSO suite
     for quantum simulation of materials; please cite
         "P. Giannozzi et al., J. Phys.:Condens. Matter 21 395502 (2009);
         "P. Giannozzi et al., J. Phys.:Condens. Matter 29 465901 (2017);
         "P. Giannozzi et al., J. Chem. Phys. 152 154105 (2020);
          URL http://www.quantum-espresso.org", 
     in publications or presentations arising from this work. More details at
     http://www.quantum-espresso.org/quote

     Parallel version (MPI), running on   128 processors

     MPI processes distributed on     1 nodes
     241358 MiB available memory on the printing compute node when the environment starts

     Waiting for input...
     Reading input from standard input
     Message from routine read_cards :
     DEPRECATED: no units specified in ATOMIC_POSITIONS card
     Message from routine read_cards :
     ATOMIC_POSITIONS: units set to alat

     Current dimensions of program PWSCF are:
     Max number of different atomic species (ntypx) = 10
     Max number of k-points (npk) =  40000
     Max angular momentum in pseudopotentials (lmaxx) =  4

     K-points division:     npool     =       4
     R & G space division:  proc/nbgrp/npool/nimage =      32
     Subspace diagonalization in iterative solution of the eigenvalue problem:
     a serial algorithm will be used


     Parallelization info
     --------------------
     sticks:   dense  smooth     PW     G-vecs:    dense   smooth      PW
     Min          83      83     23                 2819     2819     415
     Max          85      85     24                 2821     2821     418
     Sum        2665    2665    745                90249    90249   13323

     Using Slab Decomposition



     bravais-lattice index     =            2
     lattice parameter (alat)  =      12.2300  a.u.
     unit-cell volume          =     457.3191 (a.u.)^3
     number of atoms/cell      =            2
     number of atomic types    =            1
     number of electrons       =        28.00
     number of Kohn-Sham states=           14
     kinetic-energy cutoff     =     129.0000  Ry
     charge density cutoff     =     516.0000  Ry
     scf convergence threshold =      1.0E-07
     mixing beta               =       0.7000
     number of iterations used =            8  plain     mixing
     Exchange-correlation=  SLA  PW   GGX  GGC
                           (   1   4   2   2   0   0   0)

     celldm(1)=  12.230000  celldm(2)=   0.000000  celldm(3)=   0.000000
     celldm(4)=   0.000000  celldm(5)=   0.000000  celldm(6)=   0.000000

     crystal axes: (cart. coord. in units of alat)
               a(1) = (  -0.500000   0.000000   0.500000 )  
               a(2) = (   0.000000   0.500000   0.500000 )  
               a(3) = (  -0.500000   0.500000   0.000000 )  

     reciprocal axes: (cart. coord. in units 2 pi/alat)
               b(1) = ( -1.000000 -1.000000  1.000000 )  
               b(2) = (  1.000000  1.000000  1.000000 )  
               b(3) = ( -1.000000  1.000000 -1.000000 )  


     PseudoPot. # 1 for Sn read from file:
     ./Sn.pw91-n-van.UPF
     MD5 check sum: a38d2a872edd1a4efd76c0a1a38f7031
     Pseudo is Ultrasoft + core correction, Zval = 14.0
     Generated by new atomic code, or converted to UPF format
     Using radial grid of  891 points,  6 beta functions with: 
                l(1) =   0
                l(2) =   0
                l(3) =   1
                l(4) =   1
                l(5) =   2
                l(6) =   2
     Q(r) pseudized with  8 coefficients,  rinner =    1.100   1.100   1.100
                                                       1.100   1.100

     atomic species   valence    mass     pseudopotential
     Sn               14.00   118.70000     Sn( 1.00)

     48 Sym. Ops., with inversion, found (24 have fractional translation)



   Cartesian axes

     site n.     atom                  positions (alat units)
         1        Sn     tau(   1) = (   0.0000000   0.0000000   0.0000000  )
         2        Sn     tau(   2) = (   0.2500000   0.2500000   0.2500000  )

     number of k points=     8
                       cart. coord. in units 2pi/alat
        k(    1) = (   0.0000000   0.0000000   0.0000000), wk =   0.0312500
        k(    2) = (  -0.2500000   0.2500000  -0.2500000), wk =   0.2500000
        k(    3) = (   0.5000000  -0.5000000   0.5000000), wk =   0.1250000
        k(    4) = (   0.0000000   0.5000000   0.0000000), wk =   0.1875000
        k(    5) = (   0.7500000  -0.2500000   0.7500000), wk =   0.7500000
        k(    6) = (   0.5000000   0.0000000   0.5000000), wk =   0.3750000
        k(    7) = (   0.0000000  -1.0000000   0.0000000), wk =   0.0937500
        k(    8) = (  -0.5000000  -1.0000000   0.0000000), wk =   0.1875000

     Dense  grid:    90249 G-vectors     FFT dimensions: (  64,  64,  64)

     Estimated max dynamical RAM per process >       6.03 MB

     Estimated total dynamical RAM >     706.08 MB

     Initial potential from superposition of free atoms

     starting charge      27.9964, renormalised to      28.0000
     Starting wfcs are   18 randomized atomic wfcs

     total cpu time spent up to now is        0.8 secs

     per-process dynamical memory:    12.0 Mb

     Self-consistent Calculation

     iteration #  1     ecut=   129.00 Ry     beta= 0.70
     Davidson diagonalization with overlap
     ethr =  1.00E-02,  avg # of iterations =  1.9

     Threshold (ethr) on eigenvalues was too large:
     Diagonalizing with lowered threshold

     Davidson diagonalization with overlap
     ethr =  8.63E-05,  avg # of iterations =  2.0

     total cpu time spent up to now is        0.9 secs

     total energy              =    -325.62160118 Ry
     estimated scf accuracy    <       0.02919082 Ry

     iteration #  2     ecut=   129.00 Ry     beta= 0.70
     Davidson diagonalization with overlap
     ethr =  1.04E-04,  avg # of iterations =  1.0

     total cpu time spent up to now is        1.0 secs

     total energy              =    -325.62311500 Ry
     estimated scf accuracy    <       0.00151628 Ry

     iteration #  3     ecut=   129.00 Ry     beta= 0.70
     Davidson diagonalization with overlap
     ethr =  5.42E-06,  avg # of iterations =  2.2

     total cpu time spent up to now is        1.0 secs

     total energy              =    -325.62325634 Ry
     estimated scf accuracy    <       0.00003468 Ry

     iteration #  4     ecut=   129.00 Ry     beta= 0.70
     Davidson diagonalization with overlap
     ethr =  1.24E-07,  avg # of iterations =  3.2

     total cpu time spent up to now is        1.1 secs

     total energy              =    -325.62326653 Ry
     estimated scf accuracy    <       0.00000277 Ry

     iteration #  5     ecut=   129.00 Ry     beta= 0.70
     Davidson diagonalization with overlap
     ethr =  9.90E-09,  avg # of iterations =  3.8

     total cpu time spent up to now is        1.1 secs

     total energy              =    -325.62326707 Ry
     estimated scf accuracy    <       0.00000018 Ry

     iteration #  6     ecut=   129.00 Ry     beta= 0.70
     Davidson diagonalization with overlap
     ethr =  6.50E-10,  avg # of iterations =  2.5

     total cpu time spent up to now is        1.2 secs

     End of self-consistent calculation

          k = 0.0000 0.0000 0.0000 ( 11311 PWs)   bands (ev):

   -13.7103 -13.7103 -13.7103 -13.6505 -13.6505 -13.3332 -13.3332 -13.3332
   -13.3247 -13.3247  -2.7004   7.3364   8.0635   8.0635

          k =-0.2500 0.2500-0.2500 ( 11354 PWs)   bands (ev):

   -13.7365 -13.7365 -13.6971 -13.6101 -13.6101 -13.3790 -13.3790 -13.3502
   -13.2874 -13.2874  -2.1084   3.9184   7.3004   7.3004

          k = 0.5000-0.5000 0.5000 ( 11276 PWs)   bands (ev):

   -13.7470 -13.7470 -13.6829 -13.5888 -13.5888 -13.3951 -13.3951 -13.3675
   -13.2756 -13.2756  -1.0619   1.6350   6.8432   6.8432

          k = 0.0000 0.5000 0.0000 ( 11346 PWs)   bands (ev):

   -13.7383 -13.7383 -13.7142 -13.6019 -13.5526 -13.4660 -13.3716 -13.3033
   -13.2921 -13.2921  -1.8914   3.8044   6.3562   6.3562

          k = 0.7500-0.2500 0.7500 ( 11319 PWs)   bands (ev):

   -13.7771 -13.7566 -13.6503 -13.5513 -13.5222 -13.4939 -13.4264 -13.3776
   -13.2636 -13.2425  -0.7140   1.6733   5.0196   6.0391

          k = 0.5000 0.0000 0.5000 ( 11330 PWs)   bands (ev):

   -13.7705 -13.7585 -13.6442 -13.5858 -13.5482 -13.4403 -13.4092 -13.3950
   -13.2598 -13.2528  -1.2014   2.3657   4.9300   6.7745

          k = 0.0000-1.0000 0.0000 ( 11278 PWs)   bands (ev):

   -13.7624 -13.7624 -13.6258 -13.6258 -13.4858 -13.4858 -13.4004 -13.4004
   -13.2543 -13.2543   0.4181   0.4181   5.4846   5.4846

          k =-0.5000-1.0000 0.0000 ( 11320 PWs)   bands (ev):

   -13.7806 -13.7806 -13.5668 -13.5668 -13.4951 -13.4951 -13.4498 -13.4498
   -13.2369 -13.2369   0.4784   0.4784   4.9002   4.9002

     highest occupied level (ev):     8.0635

!    total energy              =    -325.62326710 Ry
     estimated scf accuracy    <       0.00000005 Ry

     The total energy is the sum of the following terms:
     one-electron contribution =    -150.98378328 Ry
     hartree contribution      =      93.25279932 Ry
     xc contribution           =     -95.23285279 Ry
     ewald contribution        =    -172.65943036 Ry

     convergence has been achieved in   6 iterations

     Writing all to output data dir ./alpha-sn-scf/alphatin.save/ :
     XML data file, charge density, pseudopotentials, collected wavefunctions

     init_run     :      0.42s CPU      0.50s WALL (       1 calls)
     electrons    :      0.38s CPU      0.45s WALL (       1 calls)

     Called by init_run:
     wfcinit      :      0.07s CPU      0.08s WALL (       1 calls)
     potinit      :      0.01s CPU      0.03s WALL (       1 calls)
     hinit0       :      0.30s CPU      0.31s WALL (       1 calls)

     Called by electrons:
     c_bands      :      0.20s CPU      0.23s WALL (       7 calls)
     sum_band     :      0.07s CPU      0.09s WALL (       7 calls)
     v_of_rho     :      0.05s CPU      0.06s WALL (       7 calls)
     newd         :      0.02s CPU      0.04s WALL (       7 calls)
     mix_rho      :      0.01s CPU      0.01s WALL (       7 calls)

     Called by c_bands:
     init_us_2    :      0.00s CPU      0.01s WALL (      30 calls)
     cegterg      :      0.19s CPU      0.20s WALL (      14 calls)

     Called by *egterg:
     cdiaghg      :      0.02s CPU      0.02s WALL (      53 calls)
     h_psi        :      0.21s CPU      0.23s WALL (      57 calls)
     s_psi        :      0.00s CPU      0.00s WALL (      57 calls)
     g_psi        :      0.00s CPU      0.00s WALL (      41 calls)

     Called by h_psi:
     h_psi:calbec :      0.01s CPU      0.01s WALL (      57 calls)
     vloc_psi     :      0.20s CPU      0.21s WALL (      57 calls)
     add_vuspsi   :      0.00s CPU      0.00s WALL (      57 calls)

     General routines
     calbec       :      0.01s CPU      0.01s WALL (      71 calls)
     fft          :      0.29s CPU      0.29s WALL (      78 calls)
     ffts         :      0.00s CPU      0.00s WALL (       7 calls)
     fftw         :      0.20s CPU      0.22s WALL (    1248 calls)

     Parallel routines

     PWSCF        :      1.04s CPU      1.36s WALL


   This run was terminated on:  16:23: 1   5Feb2026            

=------------------------------------------------------------------------------=
   JOB DONE.
=------------------------------------------------------------------------------=
