
     Program PWSCF v.7.3.1 starts on  5Feb2026 at 16:10: 2 

     This program is part of the open-source Quantum ESPRESSO suite
     for quantum simulation of materials; please cite
         "P. Giannozzi et al., J. Phys.:Condens. Matter 21 395502 (2009);
         "P. Giannozzi et al., J. Phys.:Condens. Matter 29 465901 (2017);
         "P. Giannozzi et al., J. Chem. Phys. 152 154105 (2020);
          URL http://www.quantum-espresso.org", 
     in publications or presentations arising from this work. More details at
     http://www.quantum-espresso.org/quote

     Parallel version (MPI), running on   128 processors

     MPI processes distributed on     1 nodes
     241379 MiB available memory on the printing compute node when the environment starts

     Waiting for input...
     Reading input from standard input
     Message from routine read_cards :
     DEPRECATED: no units specified in ATOMIC_POSITIONS card
     Message from routine read_cards :
     ATOMIC_POSITIONS: units set to alat

     Current dimensions of program PWSCF are:
     Max number of different atomic species (ntypx) = 10
     Max number of k-points (npk) =  40000
     Max angular momentum in pseudopotentials (lmaxx) =  4

     K-points division:     npool     =       8
     R & G space division:  proc/nbgrp/npool/nimage =      16
     Subspace diagonalization in iterative solution of the eigenvalue problem:
     a serial algorithm will be used


     Parallelization info
     --------------------
     sticks:   dense  smooth     PW     G-vecs:    dense   smooth      PW
     Min          72      72     21                 1652     1652     256
     Max          73      73     23                 1657     1657     258
     Sum        1159    1159    349                26469    26469    4111

     Using Slab Decomposition



     bravais-lattice index     =            2
     lattice parameter (alat)  =      12.2300  a.u.
     unit-cell volume          =     457.3191 (a.u.)^3
     number of atoms/cell      =            2
     number of atomic types    =            1
     number of electrons       =        28.00
     number of Kohn-Sham states=           14
     kinetic-energy cutoff     =      57.0000  Ry
     charge density cutoff     =     228.0000  Ry
     scf convergence threshold =      1.0E-07
     mixing beta               =       0.7000
     number of iterations used =            8  plain     mixing
     Exchange-correlation=  SLA  PW   GGX  GGC
                           (   1   4   2   2   0   0   0)

     celldm(1)=  12.230000  celldm(2)=   0.000000  celldm(3)=   0.000000
     celldm(4)=   0.000000  celldm(5)=   0.000000  celldm(6)=   0.000000

     crystal axes: (cart. coord. in units of alat)
               a(1) = (  -0.500000   0.000000   0.500000 )  
               a(2) = (   0.000000   0.500000   0.500000 )  
               a(3) = (  -0.500000   0.500000   0.000000 )  

     reciprocal axes: (cart. coord. in units 2 pi/alat)
               b(1) = ( -1.000000 -1.000000  1.000000 )  
               b(2) = (  1.000000  1.000000  1.000000 )  
               b(3) = ( -1.000000  1.000000 -1.000000 )  


     PseudoPot. # 1 for Sn read from file:
     ./Sn.pw91-n-van.UPF
     MD5 check sum: a38d2a872edd1a4efd76c0a1a38f7031
     Pseudo is Ultrasoft + core correction, Zval = 14.0
     Generated by new atomic code, or converted to UPF format
     Using radial grid of  891 points,  6 beta functions with: 
                l(1) =   0
                l(2) =   0
                l(3) =   1
                l(4) =   1
                l(5) =   2
                l(6) =   2
     Q(r) pseudized with  8 coefficients,  rinner =    1.100   1.100   1.100
                                                       1.100   1.100

     atomic species   valence    mass     pseudopotential
     Sn               14.00   118.70000     Sn( 1.00)

     48 Sym. Ops., with inversion, found (24 have fractional translation)



   Cartesian axes

     site n.     atom                  positions (alat units)
         1        Sn     tau(   1) = (   0.0000000   0.0000000   0.0000000  )
         2        Sn     tau(   2) = (   0.2500000   0.2500000   0.2500000  )

     number of k points=     8
                       cart. coord. in units 2pi/alat
        k(    1) = (   0.0000000   0.0000000   0.0000000), wk =   0.0312500
        k(    2) = (  -0.2500000   0.2500000  -0.2500000), wk =   0.2500000
        k(    3) = (   0.5000000  -0.5000000   0.5000000), wk =   0.1250000
        k(    4) = (   0.0000000   0.5000000   0.0000000), wk =   0.1875000
        k(    5) = (   0.7500000  -0.2500000   0.7500000), wk =   0.7500000
        k(    6) = (   0.5000000   0.0000000   0.5000000), wk =   0.3750000
        k(    7) = (   0.0000000  -1.0000000   0.0000000), wk =   0.0937500
        k(    8) = (  -0.5000000  -1.0000000   0.0000000), wk =   0.1875000

     Dense  grid:    26469 G-vectors     FFT dimensions: (  48,  48,  48)

     Estimated max dynamical RAM per process >       3.14 MB

     Estimated total dynamical RAM >     357.35 MB

     Initial potential from superposition of free atoms

     starting charge      27.9964, renormalised to      28.0000
     Starting wfcs are   18 randomized atomic wfcs

     total cpu time spent up to now is        0.8 secs

     per-process dynamical memory:    10.7 Mb

     Self-consistent Calculation

     iteration #  1     ecut=    57.00 Ry     beta= 0.70
     Davidson diagonalization with overlap
     ethr =  1.00E-02,  avg # of iterations =  1.5

     Threshold (ethr) on eigenvalues was too large:
     Diagonalizing with lowered threshold

     Davidson diagonalization with overlap
     ethr =  8.26E-05,  avg # of iterations =  2.1

     total cpu time spent up to now is        0.9 secs

     total energy              =    -325.60811863 Ry
     estimated scf accuracy    <       0.02868318 Ry

     iteration #  2     ecut=    57.00 Ry     beta= 0.70
     Davidson diagonalization with overlap
     ethr =  1.02E-04,  avg # of iterations =  1.0

     negative rho (up, down):  2.686E-05 0.000E+00

     total cpu time spent up to now is        0.9 secs

     total energy              =    -325.60913366 Ry
     estimated scf accuracy    <       0.00165393 Ry

     iteration #  3     ecut=    57.00 Ry     beta= 0.70
     Davidson diagonalization with overlap
     ethr =  5.91E-06,  avg # of iterations =  2.1

     negative rho (up, down):  3.498E-05 0.000E+00

     total cpu time spent up to now is        0.9 secs

     total energy              =    -325.60927154 Ry
     estimated scf accuracy    <       0.00003865 Ry

     iteration #  4     ecut=    57.00 Ry     beta= 0.70
     Davidson diagonalization with overlap
     ethr =  1.38E-07,  avg # of iterations =  3.8

     negative rho (up, down):  4.003E-05 0.000E+00

     total cpu time spent up to now is        0.9 secs

     total energy              =    -325.60928481 Ry
     estimated scf accuracy    <       0.00000330 Ry

     iteration #  5     ecut=    57.00 Ry     beta= 0.70
     Davidson diagonalization with overlap
     ethr =  1.18E-08,  avg # of iterations =  3.5

     negative rho (up, down):  3.952E-05 0.000E+00

     total cpu time spent up to now is        1.0 secs

     total energy              =    -325.60928553 Ry
     estimated scf accuracy    <       0.00000032 Ry

     iteration #  6     ecut=    57.00 Ry     beta= 0.70
     Davidson diagonalization with overlap
     ethr =  1.14E-09,  avg # of iterations =  2.4

     negative rho (up, down):  3.980E-05 0.000E+00

     total cpu time spent up to now is        1.0 secs

     End of self-consistent calculation

          k = 0.0000 0.0000 0.0000 (  3287 PWs)   bands (ev):

   -13.6965 -13.6965 -13.6965 -13.6411 -13.6411 -13.3200 -13.3200 -13.3200
   -13.3136 -13.3136  -2.6955   7.3394   8.0677   8.0677

          k =-0.2500 0.2500-0.2500 (  3341 PWs)   bands (ev):

   -13.7236 -13.7236 -13.6842 -13.5999 -13.5999 -13.3680 -13.3680 -13.3370
   -13.2747 -13.2747  -2.1037   3.9229   7.3045   7.3045

          k = 0.5000-0.5000 0.5000 (  3316 PWs)   bands (ev):

   -13.7343 -13.7343 -13.6697 -13.5787 -13.5787 -13.3850 -13.3850 -13.3542
   -13.2621 -13.2621  -1.0582   1.6410   6.8471   6.8471

          k = 0.0000 0.5000 0.0000 (  3327 PWs)   bands (ev):

   -13.7252 -13.7252 -13.7022 -13.5922 -13.5414 -13.4542 -13.3612 -13.2916
   -13.2784 -13.2784  -1.8868   3.8076   6.3609   6.3609

          k = 0.7500-0.2500 0.7500 (  3315 PWs)   bands (ev):

   -13.7642 -13.7437 -13.6379 -13.5411 -13.5110 -13.4822 -13.4160 -13.3658
   -13.2501 -13.2291  -0.7101   1.6773   5.0276   6.0437

          k = 0.5000 0.0000 0.5000 (  3318 PWs)   bands (ev):

   -13.7576 -13.7457 -13.6312 -13.5756 -13.5376 -13.4295 -13.3960 -13.3846
   -13.2468 -13.2394  -1.1972   2.3694   4.9386   6.7786

          k = 0.0000-1.0000 0.0000 (  3306 PWs)   bands (ev):

   -13.7492 -13.7492 -13.6141 -13.6141 -13.4758 -13.4758 -13.3889 -13.3889
   -13.2407 -13.2407   0.4219   0.4219   5.4894   5.4894

          k =-0.5000-1.0000 0.0000 (  3316 PWs)   bands (ev):

   -13.7678 -13.7678 -13.5547 -13.5547 -13.4847 -13.4847 -13.4384 -13.4384
   -13.2235 -13.2235   0.4819   0.4819   4.9082   4.9082

     highest occupied level (ev):     8.0677

!    total energy              =    -325.60928557 Ry
     estimated scf accuracy    <       0.00000010 Ry

     The total energy is the sum of the following terms:
     one-electron contribution =    -150.97328594 Ry
     hartree contribution      =      93.25805831 Ry
     xc contribution           =     -95.23462756 Ry
     ewald contribution        =    -172.65943039 Ry

     convergence has been achieved in   6 iterations

     Writing all to output data dir ./alpha-sn-scf/alphatin.save/ :
     XML data file, charge density, pseudopotentials, collected wavefunctions

     init_run     :      0.43s CPU      0.48s WALL (       1 calls)
     electrons    :      0.16s CPU      0.22s WALL (       1 calls)

     Called by init_run:
     wfcinit      :      0.01s CPU      0.02s WALL (       1 calls)
     potinit      :      0.02s CPU      0.03s WALL (       1 calls)
     hinit0       :      0.38s CPU      0.39s WALL (       1 calls)

     Called by electrons:
     c_bands      :      0.08s CPU      0.09s WALL (       7 calls)
     sum_band     :      0.03s CPU      0.04s WALL (       7 calls)
     v_of_rho     :      0.04s CPU      0.05s WALL (       7 calls)
     newd         :      0.01s CPU      0.01s WALL (       7 calls)
     mix_rho      :      0.00s CPU      0.00s WALL (       7 calls)

     Called by c_bands:
     init_us_2    :      0.00s CPU      0.00s WALL (      15 calls)
     cegterg      :      0.07s CPU      0.08s WALL (       7 calls)

     Called by *egterg:
     cdiaghg      :      0.01s CPU      0.01s WALL (      27 calls)
     h_psi        :      0.06s CPU      0.07s WALL (      29 calls)
     s_psi        :      0.00s CPU      0.00s WALL (      29 calls)
     g_psi        :      0.00s CPU      0.00s WALL (      21 calls)

     Called by h_psi:
     h_psi:calbec :      0.00s CPU      0.00s WALL (      29 calls)
     vloc_psi     :      0.05s CPU      0.06s WALL (      29 calls)
     add_vuspsi   :      0.00s CPU      0.00s WALL (      29 calls)

     General routines
     calbec       :      0.00s CPU      0.00s WALL (      36 calls)
     fft          :      0.36s CPU      0.37s WALL (      78 calls)
     ffts         :      0.00s CPU      0.00s WALL (       7 calls)
     fftw         :      0.06s CPU      0.06s WALL (     624 calls)

     Parallel routines

     PWSCF        :      0.82s CPU      1.09s WALL


   This run was terminated on:  16:10: 3   5Feb2026            

=------------------------------------------------------------------------------=
   JOB DONE.
=------------------------------------------------------------------------------=
