
     Program PWSCF v.7.3.1 starts on  5Feb2026 at 16:11:17 

     This program is part of the open-source Quantum ESPRESSO suite
     for quantum simulation of materials; please cite
         "P. Giannozzi et al., J. Phys.:Condens. Matter 21 395502 (2009);
         "P. Giannozzi et al., J. Phys.:Condens. Matter 29 465901 (2017);
         "P. Giannozzi et al., J. Chem. Phys. 152 154105 (2020);
          URL http://www.quantum-espresso.org", 
     in publications or presentations arising from this work. More details at
     http://www.quantum-espresso.org/quote

     Parallel version (MPI), running on   128 processors

     MPI processes distributed on     1 nodes
     241332 MiB available memory on the printing compute node when the environment starts

     Waiting for input...
     Reading input from standard input
     Message from routine read_cards :
     DEPRECATED: no units specified in ATOMIC_POSITIONS card
     Message from routine read_cards :
     ATOMIC_POSITIONS: units set to alat

     Current dimensions of program PWSCF are:
     Max number of different atomic species (ntypx) = 10
     Max number of k-points (npk) =  40000
     Max angular momentum in pseudopotentials (lmaxx) =  4

     K-points division:     npool     =       8
     R & G space division:  proc/nbgrp/npool/nimage =      16
     Subspace diagonalization in iterative solution of the eigenvalue problem:
     a serial algorithm will be used


     Parallelization info
     --------------------
     sticks:   dense  smooth     PW     G-vecs:    dense   smooth      PW
     Min          84      84     23                 2028     2028     308
     Max          85      85     24                 2031     2031     311
     Sum        1345    1345    379                32455    32455    4957

     Using Slab Decomposition



     bravais-lattice index     =            2
     lattice parameter (alat)  =      12.2300  a.u.
     unit-cell volume          =     457.3191 (a.u.)^3
     number of atoms/cell      =            2
     number of atomic types    =            1
     number of electrons       =        28.00
     number of Kohn-Sham states=           14
     kinetic-energy cutoff     =      65.0000  Ry
     charge density cutoff     =     260.0000  Ry
     scf convergence threshold =      1.0E-07
     mixing beta               =       0.7000
     number of iterations used =            8  plain     mixing
     Exchange-correlation=  SLA  PW   GGX  GGC
                           (   1   4   2   2   0   0   0)

     celldm(1)=  12.230000  celldm(2)=   0.000000  celldm(3)=   0.000000
     celldm(4)=   0.000000  celldm(5)=   0.000000  celldm(6)=   0.000000

     crystal axes: (cart. coord. in units of alat)
               a(1) = (  -0.500000   0.000000   0.500000 )  
               a(2) = (   0.000000   0.500000   0.500000 )  
               a(3) = (  -0.500000   0.500000   0.000000 )  

     reciprocal axes: (cart. coord. in units 2 pi/alat)
               b(1) = ( -1.000000 -1.000000  1.000000 )  
               b(2) = (  1.000000  1.000000  1.000000 )  
               b(3) = ( -1.000000  1.000000 -1.000000 )  


     PseudoPot. # 1 for Sn read from file:
     ./Sn.pw91-n-van.UPF
     MD5 check sum: a38d2a872edd1a4efd76c0a1a38f7031
     Pseudo is Ultrasoft + core correction, Zval = 14.0
     Generated by new atomic code, or converted to UPF format
     Using radial grid of  891 points,  6 beta functions with: 
                l(1) =   0
                l(2) =   0
                l(3) =   1
                l(4) =   1
                l(5) =   2
                l(6) =   2
     Q(r) pseudized with  8 coefficients,  rinner =    1.100   1.100   1.100
                                                       1.100   1.100

     atomic species   valence    mass     pseudopotential
     Sn               14.00   118.70000     Sn( 1.00)

     48 Sym. Ops., with inversion, found (24 have fractional translation)



   Cartesian axes

     site n.     atom                  positions (alat units)
         1        Sn     tau(   1) = (   0.0000000   0.0000000   0.0000000  )
         2        Sn     tau(   2) = (   0.2500000   0.2500000   0.2500000  )

     number of k points=     8
                       cart. coord. in units 2pi/alat
        k(    1) = (   0.0000000   0.0000000   0.0000000), wk =   0.0312500
        k(    2) = (  -0.2500000   0.2500000  -0.2500000), wk =   0.2500000
        k(    3) = (   0.5000000  -0.5000000   0.5000000), wk =   0.1250000
        k(    4) = (   0.0000000   0.5000000   0.0000000), wk =   0.1875000
        k(    5) = (   0.7500000  -0.2500000   0.7500000), wk =   0.7500000
        k(    6) = (   0.5000000   0.0000000   0.5000000), wk =   0.3750000
        k(    7) = (   0.0000000  -1.0000000   0.0000000), wk =   0.0937500
        k(    8) = (  -0.5000000  -1.0000000   0.0000000), wk =   0.1875000

     Dense  grid:    32455 G-vectors     FFT dimensions: (  48,  48,  48)

     Estimated max dynamical RAM per process >       3.56 MB

     Estimated total dynamical RAM >     399.94 MB

     Initial potential from superposition of free atoms

     starting charge      27.9964, renormalised to      28.0000
     Starting wfcs are   18 randomized atomic wfcs

     total cpu time spent up to now is        0.8 secs

     per-process dynamical memory:    11.0 Mb

     Self-consistent Calculation

     iteration #  1     ecut=    65.00 Ry     beta= 0.70
     Davidson diagonalization with overlap
     ethr =  1.00E-02,  avg # of iterations =  1.6

     Threshold (ethr) on eigenvalues was too large:
     Diagonalizing with lowered threshold

     Davidson diagonalization with overlap
     ethr =  8.36E-05,  avg # of iterations =  2.0

     total cpu time spent up to now is        0.9 secs

     total energy              =    -325.61155229 Ry
     estimated scf accuracy    <       0.02856460 Ry

     iteration #  2     ecut=    65.00 Ry     beta= 0.70
     Davidson diagonalization with overlap
     ethr =  1.02E-04,  avg # of iterations =  1.0

     total cpu time spent up to now is        0.9 secs

     total energy              =    -325.61253880 Ry
     estimated scf accuracy    <       0.00164842 Ry

     iteration #  3     ecut=    65.00 Ry     beta= 0.70
     Davidson diagonalization with overlap
     ethr =  5.89E-06,  avg # of iterations =  2.1

     total cpu time spent up to now is        0.9 secs

     total energy              =    -325.61267557 Ry
     estimated scf accuracy    <       0.00003987 Ry

     iteration #  4     ecut=    65.00 Ry     beta= 0.70
     Davidson diagonalization with overlap
     ethr =  1.42E-07,  avg # of iterations =  3.5

     total cpu time spent up to now is        0.9 secs

     total energy              =    -325.61268774 Ry
     estimated scf accuracy    <       0.00000340 Ry

     iteration #  5     ecut=    65.00 Ry     beta= 0.70
     Davidson diagonalization with overlap
     ethr =  1.22E-08,  avg # of iterations =  3.1

     total cpu time spent up to now is        1.0 secs

     total energy              =    -325.61268835 Ry
     estimated scf accuracy    <       0.00000036 Ry

     iteration #  6     ecut=    65.00 Ry     beta= 0.70
     Davidson diagonalization with overlap
     ethr =  1.28E-09,  avg # of iterations =  2.5

     total cpu time spent up to now is        1.0 secs

     End of self-consistent calculation

          k = 0.0000 0.0000 0.0000 (  4015 PWs)   bands (ev):

   -13.7023 -13.7023 -13.7023 -13.6444 -13.6444 -13.3256 -13.3256 -13.3256
   -13.3178 -13.3178  -2.6983   7.3377   8.0654   8.0654

          k =-0.2500 0.2500-0.2500 (  4032 PWs)   bands (ev):

   -13.7289 -13.7289 -13.6893 -13.6034 -13.6034 -13.3720 -13.3720 -13.3424
   -13.2799 -13.2799  -2.1064   3.9203   7.3022   7.3022

          k = 0.5000-0.5000 0.5000 (  4044 PWs)   bands (ev):

   -13.7397 -13.7397 -13.6754 -13.5821 -13.5821 -13.3885 -13.3885 -13.3601
   -13.2679 -13.2679  -1.0603   1.6375   6.8449   6.8449

          k = 0.0000 0.5000 0.0000 (  4064 PWs)   bands (ev):

   -13.7308 -13.7308 -13.7069 -13.5957 -13.5455 -13.4587 -13.3649 -13.2960
   -13.2843 -13.2843  -1.8894   3.8058   6.3582   6.3582

          k = 0.7500-0.2500 0.7500 (  4058 PWs)   bands (ev):

   -13.7697 -13.7491 -13.6429 -13.5448 -13.5152 -13.4868 -13.4197 -13.3705
   -13.2559 -13.2349  -0.7123   1.6750   5.0230   6.0410

          k = 0.5000 0.0000 0.5000 (  4025 PWs)   bands (ev):

   -13.7630 -13.7511 -13.6366 -13.5793 -13.5414 -13.4334 -13.4015 -13.3882
   -13.2522 -13.2451  -1.1996   2.3673   4.9337   6.7763

          k = 0.0000-1.0000 0.0000 (  4088 PWs)   bands (ev):

   -13.7551 -13.7551 -13.6187 -13.6187 -13.4794 -13.4794 -13.3935 -13.3935
   -13.2469 -13.2469   0.4197   0.4197   5.4866   5.4866

          k =-0.5000-1.0000 0.0000 (  4056 PWs)   bands (ev):

   -13.7731 -13.7731 -13.5597 -13.5597 -13.4884 -13.4884 -13.4427 -13.4427
   -13.2294 -13.2294   0.4799   0.4799   4.9036   4.9036

     highest occupied level (ev):     8.0654

!    total energy              =    -325.61268840 Ry
     estimated scf accuracy    <       0.00000008 Ry

     The total energy is the sum of the following terms:
     one-electron contribution =    -150.97321521 Ry
     hartree contribution      =      93.25309919 Ry
     xc contribution           =     -95.23314201 Ry
     ewald contribution        =    -172.65943037 Ry

     convergence has been achieved in   6 iterations

     Writing all to output data dir ./alpha-sn-scf/alphatin.save/ :
     XML data file, charge density, pseudopotentials, collected wavefunctions

     init_run     :      0.42s CPU      0.48s WALL (       1 calls)
     electrons    :      0.17s CPU      0.24s WALL (       1 calls)

     Called by init_run:
     wfcinit      :      0.02s CPU      0.02s WALL (       1 calls)
     potinit      :      0.01s CPU      0.02s WALL (       1 calls)
     hinit0       :      0.38s CPU      0.39s WALL (       1 calls)

     Called by electrons:
     c_bands      :      0.08s CPU      0.09s WALL (       7 calls)
     sum_band     :      0.04s CPU      0.05s WALL (       7 calls)
     v_of_rho     :      0.04s CPU      0.05s WALL (       7 calls)
     newd         :      0.01s CPU      0.01s WALL (       7 calls)
     mix_rho      :      0.00s CPU      0.00s WALL (       7 calls)

     Called by c_bands:
     init_us_2    :      0.00s CPU      0.00s WALL (      15 calls)
     cegterg      :      0.07s CPU      0.08s WALL (       7 calls)

     Called by *egterg:
     cdiaghg      :      0.01s CPU      0.01s WALL (      26 calls)
     h_psi        :      0.07s CPU      0.08s WALL (      28 calls)
     s_psi        :      0.00s CPU      0.00s WALL (      28 calls)
     g_psi        :      0.00s CPU      0.00s WALL (      20 calls)

     Called by h_psi:
     h_psi:calbec :      0.01s CPU      0.01s WALL (      28 calls)
     vloc_psi     :      0.06s CPU      0.07s WALL (      28 calls)
     add_vuspsi   :      0.00s CPU      0.00s WALL (      28 calls)

     General routines
     calbec       :      0.00s CPU      0.01s WALL (      35 calls)
     fft          :      0.36s CPU      0.37s WALL (      78 calls)
     ffts         :      0.00s CPU      0.00s WALL (       7 calls)
     fftw         :      0.06s CPU      0.07s WALL (     616 calls)

     Parallel routines

     PWSCF        :      0.85s CPU      1.13s WALL


   This run was terminated on:  16:11:18   5Feb2026            

=------------------------------------------------------------------------------=
   JOB DONE.
=------------------------------------------------------------------------------=
