
     Program PWSCF v.7.3.1 starts on  5Feb2026 at 16:12:22 

     This program is part of the open-source Quantum ESPRESSO suite
     for quantum simulation of materials; please cite
         "P. Giannozzi et al., J. Phys.:Condens. Matter 21 395502 (2009);
         "P. Giannozzi et al., J. Phys.:Condens. Matter 29 465901 (2017);
         "P. Giannozzi et al., J. Chem. Phys. 152 154105 (2020);
          URL http://www.quantum-espresso.org", 
     in publications or presentations arising from this work. More details at
     http://www.quantum-espresso.org/quote

     Parallel version (MPI), running on   128 processors

     MPI processes distributed on     1 nodes
     241397 MiB available memory on the printing compute node when the environment starts

     Waiting for input...
     Reading input from standard input
     Message from routine read_cards :
     DEPRECATED: no units specified in ATOMIC_POSITIONS card
     Message from routine read_cards :
     ATOMIC_POSITIONS: units set to alat

     Current dimensions of program PWSCF are:
     Max number of different atomic species (ntypx) = 10
     Max number of k-points (npk) =  40000
     Max angular momentum in pseudopotentials (lmaxx) =  4

     K-points division:     npool     =       8
     R & G space division:  proc/nbgrp/npool/nimage =      16
     Subspace diagonalization in iterative solution of the eigenvalue problem:
     a serial algorithm will be used


     Parallelization info
     --------------------
     sticks:   dense  smooth     PW     G-vecs:    dense   smooth      PW
     Min          92      92     26                 2303     2303     349
     Max          93      93     27                 2304     2304     352
     Sum        1483    1483    421                36853    36853    5601

     Using Slab Decomposition



     bravais-lattice index     =            2
     lattice parameter (alat)  =      12.2300  a.u.
     unit-cell volume          =     457.3191 (a.u.)^3
     number of atoms/cell      =            2
     number of atomic types    =            1
     number of electrons       =        28.00
     number of Kohn-Sham states=           14
     kinetic-energy cutoff     =      71.0000  Ry
     charge density cutoff     =     284.0000  Ry
     scf convergence threshold =      1.0E-07
     mixing beta               =       0.7000
     number of iterations used =            8  plain     mixing
     Exchange-correlation=  SLA  PW   GGX  GGC
                           (   1   4   2   2   0   0   0)

     celldm(1)=  12.230000  celldm(2)=   0.000000  celldm(3)=   0.000000
     celldm(4)=   0.000000  celldm(5)=   0.000000  celldm(6)=   0.000000

     crystal axes: (cart. coord. in units of alat)
               a(1) = (  -0.500000   0.000000   0.500000 )  
               a(2) = (   0.000000   0.500000   0.500000 )  
               a(3) = (  -0.500000   0.500000   0.000000 )  

     reciprocal axes: (cart. coord. in units 2 pi/alat)
               b(1) = ( -1.000000 -1.000000  1.000000 )  
               b(2) = (  1.000000  1.000000  1.000000 )  
               b(3) = ( -1.000000  1.000000 -1.000000 )  


     PseudoPot. # 1 for Sn read from file:
     ./Sn.pw91-n-van.UPF
     MD5 check sum: a38d2a872edd1a4efd76c0a1a38f7031
     Pseudo is Ultrasoft + core correction, Zval = 14.0
     Generated by new atomic code, or converted to UPF format
     Using radial grid of  891 points,  6 beta functions with: 
                l(1) =   0
                l(2) =   0
                l(3) =   1
                l(4) =   1
                l(5) =   2
                l(6) =   2
     Q(r) pseudized with  8 coefficients,  rinner =    1.100   1.100   1.100
                                                       1.100   1.100

     atomic species   valence    mass     pseudopotential
     Sn               14.00   118.70000     Sn( 1.00)

     48 Sym. Ops., with inversion, found (24 have fractional translation)



   Cartesian axes

     site n.     atom                  positions (alat units)
         1        Sn     tau(   1) = (   0.0000000   0.0000000   0.0000000  )
         2        Sn     tau(   2) = (   0.2500000   0.2500000   0.2500000  )

     number of k points=     8
                       cart. coord. in units 2pi/alat
        k(    1) = (   0.0000000   0.0000000   0.0000000), wk =   0.0312500
        k(    2) = (  -0.2500000   0.2500000  -0.2500000), wk =   0.2500000
        k(    3) = (   0.5000000  -0.5000000   0.5000000), wk =   0.1250000
        k(    4) = (   0.0000000   0.5000000   0.0000000), wk =   0.1875000
        k(    5) = (   0.7500000  -0.2500000   0.7500000), wk =   0.7500000
        k(    6) = (   0.5000000   0.0000000   0.5000000), wk =   0.3750000
        k(    7) = (   0.0000000  -1.0000000   0.0000000), wk =   0.0937500
        k(    8) = (  -0.5000000  -1.0000000   0.0000000), wk =   0.1875000

     Dense  grid:    36853 G-vectors     FFT dimensions: (  48,  48,  48)

     Estimated max dynamical RAM per process >       3.86 MB

     Estimated total dynamical RAM >     431.38 MB

     Initial potential from superposition of free atoms

     starting charge      27.9964, renormalised to      28.0000
     Starting wfcs are   18 randomized atomic wfcs

     total cpu time spent up to now is        0.8 secs

     per-process dynamical memory:    11.1 Mb

     Self-consistent Calculation

     iteration #  1     ecut=    71.00 Ry     beta= 0.70
     Davidson diagonalization with overlap
     ethr =  1.00E-02,  avg # of iterations =  1.5

     Threshold (ethr) on eigenvalues was too large:
     Diagonalizing with lowered threshold

     Davidson diagonalization with overlap
     ethr =  8.28E-05,  avg # of iterations =  2.1

     total cpu time spent up to now is        0.9 secs

     total energy              =    -325.61170933 Ry
     estimated scf accuracy    <       0.02859055 Ry

     iteration #  2     ecut=    71.00 Ry     beta= 0.70
     Davidson diagonalization with overlap
     ethr =  1.02E-04,  avg # of iterations =  1.0

     total cpu time spent up to now is        0.9 secs

     total energy              =    -325.61267788 Ry
     estimated scf accuracy    <       0.00163195 Ry

     iteration #  3     ecut=    71.00 Ry     beta= 0.70
     Davidson diagonalization with overlap
     ethr =  5.83E-06,  avg # of iterations =  2.1

     total cpu time spent up to now is        0.9 secs

     total energy              =    -325.61281380 Ry
     estimated scf accuracy    <       0.00003971 Ry

     iteration #  4     ecut=    71.00 Ry     beta= 0.70
     Davidson diagonalization with overlap
     ethr =  1.42E-07,  avg # of iterations =  3.4

     total cpu time spent up to now is        0.9 secs

     total energy              =    -325.61282496 Ry
     estimated scf accuracy    <       0.00000337 Ry

     iteration #  5     ecut=    71.00 Ry     beta= 0.70
     Davidson diagonalization with overlap
     ethr =  1.21E-08,  avg # of iterations =  3.6

     total cpu time spent up to now is        1.0 secs

     total energy              =    -325.61282568 Ry
     estimated scf accuracy    <       0.00000034 Ry

     iteration #  6     ecut=    71.00 Ry     beta= 0.70
     Davidson diagonalization with overlap
     ethr =  1.22E-09,  avg # of iterations =  2.2

     total cpu time spent up to now is        1.0 secs

     End of self-consistent calculation

          k = 0.0000 0.0000 0.0000 (  4645 PWs)   bands (ev):

   -13.7051 -13.7051 -13.7051 -13.6460 -13.6460 -13.3281 -13.3281 -13.3281
   -13.3197 -13.3197  -2.7001   7.3364   8.0641   8.0641

          k =-0.2500 0.2500-0.2500 (  4633 PWs)   bands (ev):

   -13.7314 -13.7314 -13.6919 -13.6052 -13.6052 -13.3740 -13.3740 -13.3450
   -13.2823 -13.2823  -2.1080   3.9188   7.3009   7.3009

          k = 0.5000-0.5000 0.5000 (  4626 PWs)   bands (ev):

   -13.7421 -13.7421 -13.6779 -13.5840 -13.5840 -13.3903 -13.3903 -13.3627
   -13.2705 -13.2705  -1.0616   1.6355   6.8437   6.8437

          k = 0.0000 0.5000 0.0000 (  4632 PWs)   bands (ev):

   -13.7333 -13.7333 -13.7092 -13.5973 -13.5475 -13.4609 -13.3665 -13.2981
   -13.2868 -13.2868  -1.8911   3.8047   6.3567   6.3567

          k = 0.7500-0.2500 0.7500 (  4617 PWs)   bands (ev):

   -13.7721 -13.7515 -13.6452 -13.5465 -13.5172 -13.4890 -13.4214 -13.3726
   -13.2585 -13.2374  -0.7137   1.6737   5.0203   6.0396

          k = 0.5000 0.0000 0.5000 (  4632 PWs)   bands (ev):

   -13.7655 -13.7535 -13.6391 -13.5810 -13.5433 -13.4353 -13.4041 -13.3900
   -13.2547 -13.2477  -1.2011   2.3660   4.9309   6.7750

          k = 0.0000-1.0000 0.0000 (  4568 PWs)   bands (ev):

   -13.7575 -13.7575 -13.6209 -13.6209 -13.4810 -13.4810 -13.3955 -13.3955
   -13.2494 -13.2494   0.4184   0.4184   5.4850   5.4850

          k =-0.5000-1.0000 0.0000 (  4600 PWs)   bands (ev):

   -13.7756 -13.7756 -13.5619 -13.5619 -13.4902 -13.4902 -13.4447 -13.4447
   -13.2318 -13.2318   0.4787   0.4787   4.9009   4.9009

     highest occupied level (ev):     8.0641

!    total energy              =    -325.61282573 Ry
     estimated scf accuracy    <       0.00000006 Ry

     The total energy is the sum of the following terms:
     one-electron contribution =    -150.97074674 Ry
     hartree contribution      =      93.24948525 Ry
     xc contribution           =     -95.23213388 Ry
     ewald contribution        =    -172.65943036 Ry

     convergence has been achieved in   6 iterations

     Writing all to output data dir ./alpha-sn-scf/alphatin.save/ :
     XML data file, charge density, pseudopotentials, collected wavefunctions

     init_run     :      0.43s CPU      0.48s WALL (       1 calls)
     electrons    :      0.17s CPU      0.24s WALL (       1 calls)

     Called by init_run:
     wfcinit      :      0.01s CPU      0.02s WALL (       1 calls)
     potinit      :      0.01s CPU      0.02s WALL (       1 calls)
     hinit0       :      0.38s CPU      0.40s WALL (       1 calls)

     Called by electrons:
     c_bands      :      0.08s CPU      0.10s WALL (       7 calls)
     sum_band     :      0.04s CPU      0.05s WALL (       7 calls)
     v_of_rho     :      0.03s CPU      0.05s WALL (       7 calls)
     newd         :      0.02s CPU      0.02s WALL (       7 calls)
     mix_rho      :      0.00s CPU      0.00s WALL (       7 calls)

     Called by c_bands:
     init_us_2    :      0.00s CPU      0.00s WALL (      15 calls)
     cegterg      :      0.07s CPU      0.08s WALL (       7 calls)

     Called by *egterg:
     cdiaghg      :      0.01s CPU      0.01s WALL (      27 calls)
     h_psi        :      0.06s CPU      0.07s WALL (      29 calls)
     s_psi        :      0.00s CPU      0.00s WALL (      29 calls)
     g_psi        :      0.00s CPU      0.00s WALL (      21 calls)

     Called by h_psi:
     h_psi:calbec :      0.00s CPU      0.00s WALL (      29 calls)
     vloc_psi     :      0.06s CPU      0.07s WALL (      29 calls)
     add_vuspsi   :      0.00s CPU      0.00s WALL (      29 calls)

     General routines
     calbec       :      0.00s CPU      0.01s WALL (      36 calls)
     fft          :      0.36s CPU      0.37s WALL (      78 calls)
     ffts         :      0.00s CPU      0.00s WALL (       7 calls)
     fftw         :      0.06s CPU      0.07s WALL (     612 calls)

     Parallel routines

     PWSCF        :      0.83s CPU      1.57s WALL


   This run was terminated on:  16:12:23   5Feb2026            

=------------------------------------------------------------------------------=
   JOB DONE.
=------------------------------------------------------------------------------=
