
     Program PWSCF v.7.3.1 starts on  5Feb2026 at 16:15:42 

     This program is part of the open-source Quantum ESPRESSO suite
     for quantum simulation of materials; please cite
         "P. Giannozzi et al., J. Phys.:Condens. Matter 21 395502 (2009);
         "P. Giannozzi et al., J. Phys.:Condens. Matter 29 465901 (2017);
         "P. Giannozzi et al., J. Chem. Phys. 152 154105 (2020);
          URL http://www.quantum-espresso.org", 
     in publications or presentations arising from this work. More details at
     http://www.quantum-espresso.org/quote

     Parallel version (MPI), running on   128 processors

     MPI processes distributed on     1 nodes
     241327 MiB available memory on the printing compute node when the environment starts

     Waiting for input...
     Reading input from standard input
     Message from routine read_cards :
     DEPRECATED: no units specified in ATOMIC_POSITIONS card
     Message from routine read_cards :
     ATOMIC_POSITIONS: units set to alat

     Current dimensions of program PWSCF are:
     Max number of different atomic species (ntypx) = 10
     Max number of k-points (npk) =  40000
     Max angular momentum in pseudopotentials (lmaxx) =  4

     K-points division:     npool     =       8
     R & G space division:  proc/nbgrp/npool/nimage =      16
     Subspace diagonalization in iterative solution of the eigenvalue problem:
     a serial algorithm will be used


     Parallelization info
     --------------------
     sticks:   dense  smooth     PW     G-vecs:    dense   smooth      PW
     Min         113     113     31                 3232     3232     484
     Max         114     114     32                 3237     3237     489
     Sum        1813    1813    511                51733    51733    7799

     Using Slab Decomposition



     bravais-lattice index     =            2
     lattice parameter (alat)  =      12.2300  a.u.
     unit-cell volume          =     457.3191 (a.u.)^3
     number of atoms/cell      =            2
     number of atomic types    =            1
     number of electrons       =        28.00
     number of Kohn-Sham states=           14
     kinetic-energy cutoff     =      89.0000  Ry
     charge density cutoff     =     356.0000  Ry
     scf convergence threshold =      1.0E-07
     mixing beta               =       0.7000
     number of iterations used =            8  plain     mixing
     Exchange-correlation=  SLA  PW   GGX  GGC
                           (   1   4   2   2   0   0   0)

     celldm(1)=  12.230000  celldm(2)=   0.000000  celldm(3)=   0.000000
     celldm(4)=   0.000000  celldm(5)=   0.000000  celldm(6)=   0.000000

     crystal axes: (cart. coord. in units of alat)
               a(1) = (  -0.500000   0.000000   0.500000 )  
               a(2) = (   0.000000   0.500000   0.500000 )  
               a(3) = (  -0.500000   0.500000   0.000000 )  

     reciprocal axes: (cart. coord. in units 2 pi/alat)
               b(1) = ( -1.000000 -1.000000  1.000000 )  
               b(2) = (  1.000000  1.000000  1.000000 )  
               b(3) = ( -1.000000  1.000000 -1.000000 )  


     PseudoPot. # 1 for Sn read from file:
     ./Sn.pw91-n-van.UPF
     MD5 check sum: a38d2a872edd1a4efd76c0a1a38f7031
     Pseudo is Ultrasoft + core correction, Zval = 14.0
     Generated by new atomic code, or converted to UPF format
     Using radial grid of  891 points,  6 beta functions with: 
                l(1) =   0
                l(2) =   0
                l(3) =   1
                l(4) =   1
                l(5) =   2
                l(6) =   2
     Q(r) pseudized with  8 coefficients,  rinner =    1.100   1.100   1.100
                                                       1.100   1.100

     atomic species   valence    mass     pseudopotential
     Sn               14.00   118.70000     Sn( 1.00)

     48 Sym. Ops., with inversion, found (24 have fractional translation)



   Cartesian axes

     site n.     atom                  positions (alat units)
         1        Sn     tau(   1) = (   0.0000000   0.0000000   0.0000000  )
         2        Sn     tau(   2) = (   0.2500000   0.2500000   0.2500000  )

     number of k points=     8
                       cart. coord. in units 2pi/alat
        k(    1) = (   0.0000000   0.0000000   0.0000000), wk =   0.0312500
        k(    2) = (  -0.2500000   0.2500000  -0.2500000), wk =   0.2500000
        k(    3) = (   0.5000000  -0.5000000   0.5000000), wk =   0.1250000
        k(    4) = (   0.0000000   0.5000000   0.0000000), wk =   0.1875000
        k(    5) = (   0.7500000  -0.2500000   0.7500000), wk =   0.7500000
        k(    6) = (   0.5000000   0.0000000   0.5000000), wk =   0.3750000
        k(    7) = (   0.0000000  -1.0000000   0.0000000), wk =   0.0937500
        k(    8) = (  -0.5000000  -1.0000000   0.0000000), wk =   0.1875000

     Dense  grid:    51733 G-vectors     FFT dimensions: (  60,  60,  60)

     Estimated max dynamical RAM per process >       5.36 MB

     Estimated total dynamical RAM >     597.56 MB

     Initial potential from superposition of free atoms

     starting charge      27.9964, renormalised to      28.0000
     Starting wfcs are   18 randomized atomic wfcs

     total cpu time spent up to now is        0.9 secs

     per-process dynamical memory:    12.1 Mb

     Self-consistent Calculation

     iteration #  1     ecut=    89.00 Ry     beta= 0.70
     Davidson diagonalization with overlap
     ethr =  1.00E-02,  avg # of iterations =  1.4

     Threshold (ethr) on eigenvalues was too large:
     Diagonalizing with lowered threshold

     Davidson diagonalization with overlap
     ethr =  8.07E-05,  avg # of iterations =  2.4

     total cpu time spent up to now is        1.0 secs

     total energy              =    -325.61382818 Ry
     estimated scf accuracy    <       0.02885258 Ry

     iteration #  2     ecut=    89.00 Ry     beta= 0.70
     Davidson diagonalization with overlap
     ethr =  1.03E-04,  avg # of iterations =  1.0

     negative rho (up, down):  8.713E-06 0.000E+00

     total cpu time spent up to now is        1.0 secs

     total energy              =    -325.61484174 Ry
     estimated scf accuracy    <       0.00157594 Ry

     iteration #  3     ecut=    89.00 Ry     beta= 0.70
     Davidson diagonalization with overlap
     ethr =  5.63E-06,  avg # of iterations =  2.2

     negative rho (up, down):  1.306E-05 0.000E+00

     total cpu time spent up to now is        1.1 secs

     total energy              =    -325.61497071 Ry
     estimated scf accuracy    <       0.00003638 Ry

     iteration #  4     ecut=    89.00 Ry     beta= 0.70
     Davidson diagonalization with overlap
     ethr =  1.30E-07,  avg # of iterations =  3.4

     negative rho (up, down):  1.542E-05 0.000E+00

     total cpu time spent up to now is        1.1 secs

     total energy              =    -325.61498050 Ry
     estimated scf accuracy    <       0.00000297 Ry

     iteration #  5     ecut=    89.00 Ry     beta= 0.70
     Davidson diagonalization with overlap
     ethr =  1.06E-08,  avg # of iterations =  3.9

     negative rho (up, down):  1.525E-05 0.000E+00

     total cpu time spent up to now is        1.2 secs

     total energy              =    -325.61498114 Ry
     estimated scf accuracy    <       0.00000024 Ry

     iteration #  6     ecut=    89.00 Ry     beta= 0.70
     Davidson diagonalization with overlap
     ethr =  8.43E-10,  avg # of iterations =  2.8

     negative rho (up, down):  1.537E-05 0.000E+00

     total cpu time spent up to now is        1.2 secs

     End of self-consistent calculation

          k = 0.0000 0.0000 0.0000 (  6423 PWs)   bands (ev):

   -13.7052 -13.7052 -13.7052 -13.6464 -13.6464 -13.3286 -13.3286 -13.3286
   -13.3201 -13.3201  -2.7001   7.3363   8.0640   8.0640

          k =-0.2500 0.2500-0.2500 (  6483 PWs)   bands (ev):

   -13.7316 -13.7316 -13.6921 -13.6056 -13.6056 -13.3745 -13.3745 -13.3454
   -13.2828 -13.2828  -2.1081   3.9187   7.3009   7.3009

          k = 0.5000-0.5000 0.5000 (  6478 PWs)   bands (ev):

   -13.7424 -13.7424 -13.6782 -13.5843 -13.5843 -13.3907 -13.3907 -13.3632
   -13.2709 -13.2709  -1.0617   1.6354   6.8436   6.8436

          k = 0.0000 0.5000 0.0000 (  6454 PWs)   bands (ev):

   -13.7335 -13.7335 -13.7094 -13.5978 -13.5478 -13.4613 -13.3670 -13.2985
   -13.2873 -13.2873  -1.8911   3.8046   6.3567   6.3567

          k = 0.7500-0.2500 0.7500 (  6487 PWs)   bands (ev):

   -13.7723 -13.7518 -13.6456 -13.5469 -13.5176 -13.4894 -13.4219 -13.3730
   -13.2590 -13.2379  -0.7138   1.6736   5.0203   6.0395

          k = 0.5000 0.0000 0.5000 (  6475 PWs)   bands (ev):

   -13.7657 -13.7538 -13.6394 -13.5815 -13.5437 -13.4358 -13.4045 -13.3904
   -13.2552 -13.2482  -1.2011   2.3660   4.9308   6.7749

          k = 0.0000-1.0000 0.0000 (  6466 PWs)   bands (ev):

   -13.7577 -13.7577 -13.6212 -13.6212 -13.4815 -13.4815 -13.3958 -13.3958
   -13.2498 -13.2498   0.4183   0.4183   5.4850   5.4850

          k =-0.5000-1.0000 0.0000 (  6476 PWs)   bands (ev):

   -13.7758 -13.7758 -13.5623 -13.5623 -13.4906 -13.4906 -13.4452 -13.4452
   -13.2323 -13.2323   0.4786   0.4786   4.9009   4.9009

     highest occupied level (ev):     8.0640

!    total energy              =    -325.61498117 Ry
     estimated scf accuracy    <       0.00000009 Ry

     The total energy is the sum of the following terms:
     one-electron contribution =    -150.97365206 Ry
     hartree contribution      =      93.25048472 Ry
     xc contribution           =     -95.23238347 Ry
     ewald contribution        =    -172.65943036 Ry

     convergence has been achieved in   6 iterations

     Writing all to output data dir ./alpha-sn-scf/alphatin.save/ :
     XML data file, charge density, pseudopotentials, collected wavefunctions

     init_run     :      0.51s CPU      0.58s WALL (       1 calls)
     electrons    :      0.32s CPU      0.50s WALL (       1 calls)

     Called by init_run:
     wfcinit      :      0.01s CPU      0.02s WALL (       1 calls)
     potinit      :      0.02s CPU      0.04s WALL (       1 calls)
     hinit0       :      0.44s CPU      0.46s WALL (       1 calls)

     Called by electrons:
     c_bands      :      0.15s CPU      0.15s WALL (       7 calls)
     sum_band     :      0.06s CPU      0.07s WALL (       7 calls)
     v_of_rho     :      0.08s CPU      0.09s WALL (       7 calls)
     newd         :      0.01s CPU      0.02s WALL (       7 calls)
     mix_rho      :      0.01s CPU      0.01s WALL (       7 calls)

     Called by c_bands:
     init_us_2    :      0.00s CPU      0.00s WALL (      15 calls)
     cegterg      :      0.13s CPU      0.13s WALL (       7 calls)

     Called by *egterg:
     cdiaghg      :      0.01s CPU      0.01s WALL (      26 calls)
     h_psi        :      0.11s CPU      0.13s WALL (      28 calls)
     s_psi        :      0.00s CPU      0.00s WALL (      28 calls)
     g_psi        :      0.00s CPU      0.00s WALL (      20 calls)

     Called by h_psi:
     h_psi:calbec :      0.01s CPU      0.01s WALL (      28 calls)
     vloc_psi     :      0.11s CPU      0.12s WALL (      28 calls)
     add_vuspsi   :      0.00s CPU      0.00s WALL (      28 calls)

     General routines
     calbec       :      0.01s CPU      0.01s WALL (      35 calls)
     fft          :      0.44s CPU      0.44s WALL (      78 calls)
     ffts         :      0.00s CPU      0.00s WALL (       7 calls)
     fftw         :      0.11s CPU      0.12s WALL (     630 calls)

     Parallel routines

     PWSCF        :      1.28s CPU      1.68s WALL


   This run was terminated on:  16:15:43   5Feb2026            

=------------------------------------------------------------------------------=
   JOB DONE.
=------------------------------------------------------------------------------=
