
     Program PWSCF v.7.3.1 starts on  5Feb2026 at 16: 9: 2 

     This program is part of the open-source Quantum ESPRESSO suite
     for quantum simulation of materials; please cite
         "P. Giannozzi et al., J. Phys.:Condens. Matter 21 395502 (2009);
         "P. Giannozzi et al., J. Phys.:Condens. Matter 29 465901 (2017);
         "P. Giannozzi et al., J. Chem. Phys. 152 154105 (2020);
          URL http://www.quantum-espresso.org", 
     in publications or presentations arising from this work. More details at
     http://www.quantum-espresso.org/quote

     Parallel version (MPI), running on   128 processors

     MPI processes distributed on     1 nodes
     241356 MiB available memory on the printing compute node when the environment starts

     Waiting for input...
     Reading input from standard input
     Message from routine read_cards :
     DEPRECATED: no units specified in ATOMIC_POSITIONS card
     Message from routine read_cards :
     ATOMIC_POSITIONS: units set to alat

     Current dimensions of program PWSCF are:
     Max number of different atomic species (ntypx) = 10
     Max number of k-points (npk) =  40000
     Max angular momentum in pseudopotentials (lmaxx) =  4

     K-points division:     npool     =       8
     R & G space division:  proc/nbgrp/npool/nimage =      16
     Subspace diagonalization in iterative solution of the eigenvalue problem:
     a serial algorithm will be used


     Parallelization info
     --------------------
     sticks:   dense  smooth     PW     G-vecs:    dense   smooth      PW
     Min          65      65     19                 1400     1400     220
     Max          66      66     21                 1402     1402     221
     Sum        1045    1045    313                22419    22419    3527

     Using Slab Decomposition



     bravais-lattice index     =            2
     lattice parameter (alat)  =      12.2300  a.u.
     unit-cell volume          =     457.3191 (a.u.)^3
     number of atoms/cell      =            2
     number of atomic types    =            1
     number of electrons       =        28.00
     number of Kohn-Sham states=           14
     kinetic-energy cutoff     =      51.0000  Ry
     charge density cutoff     =     204.0000  Ry
     scf convergence threshold =      1.0E-07
     mixing beta               =       0.7000
     number of iterations used =            8  plain     mixing
     Exchange-correlation=  SLA  PW   GGX  GGC
                           (   1   4   2   2   0   0   0)

     celldm(1)=  12.230000  celldm(2)=   0.000000  celldm(3)=   0.000000
     celldm(4)=   0.000000  celldm(5)=   0.000000  celldm(6)=   0.000000

     crystal axes: (cart. coord. in units of alat)
               a(1) = (  -0.500000   0.000000   0.500000 )  
               a(2) = (   0.000000   0.500000   0.500000 )  
               a(3) = (  -0.500000   0.500000   0.000000 )  

     reciprocal axes: (cart. coord. in units 2 pi/alat)
               b(1) = ( -1.000000 -1.000000  1.000000 )  
               b(2) = (  1.000000  1.000000  1.000000 )  
               b(3) = ( -1.000000  1.000000 -1.000000 )  


     PseudoPot. # 1 for Sn read from file:
     ./Sn.pw91-n-van.UPF
     MD5 check sum: a38d2a872edd1a4efd76c0a1a38f7031
     Pseudo is Ultrasoft + core correction, Zval = 14.0
     Generated by new atomic code, or converted to UPF format
     Using radial grid of  891 points,  6 beta functions with: 
                l(1) =   0
                l(2) =   0
                l(3) =   1
                l(4) =   1
                l(5) =   2
                l(6) =   2
     Q(r) pseudized with  8 coefficients,  rinner =    1.100   1.100   1.100
                                                       1.100   1.100

     atomic species   valence    mass     pseudopotential
     Sn               14.00   118.70000     Sn( 1.00)

     48 Sym. Ops., with inversion, found (24 have fractional translation)



   Cartesian axes

     site n.     atom                  positions (alat units)
         1        Sn     tau(   1) = (   0.0000000   0.0000000   0.0000000  )
         2        Sn     tau(   2) = (   0.2500000   0.2500000   0.2500000  )

     number of k points=     8
                       cart. coord. in units 2pi/alat
        k(    1) = (   0.0000000   0.0000000   0.0000000), wk =   0.0312500
        k(    2) = (  -0.2500000   0.2500000  -0.2500000), wk =   0.2500000
        k(    3) = (   0.5000000  -0.5000000   0.5000000), wk =   0.1250000
        k(    4) = (   0.0000000   0.5000000   0.0000000), wk =   0.1875000
        k(    5) = (   0.7500000  -0.2500000   0.7500000), wk =   0.7500000
        k(    6) = (   0.5000000   0.0000000   0.5000000), wk =   0.3750000
        k(    7) = (   0.0000000  -1.0000000   0.0000000), wk =   0.0937500
        k(    8) = (  -0.5000000  -1.0000000   0.0000000), wk =   0.1875000

     Dense  grid:    22419 G-vectors     FFT dimensions: (  40,  40,  40)

     Estimated max dynamical RAM per process >       2.71 MB

     Estimated total dynamical RAM >     309.02 MB

     Initial potential from superposition of free atoms

     starting charge      27.9964, renormalised to      28.0000
     Starting wfcs are   18 randomized atomic wfcs

     total cpu time spent up to now is        0.7 secs

     per-process dynamical memory:    10.2 Mb

     Self-consistent Calculation

     iteration #  1     ecut=    51.00 Ry     beta= 0.70
     Davidson diagonalization with overlap
     ethr =  1.00E-02,  avg # of iterations =  1.5

     Threshold (ethr) on eigenvalues was too large:
     Diagonalizing with lowered threshold

     Davidson diagonalization with overlap
     ethr =  8.36E-05,  avg # of iterations =  2.1

     negative rho (up, down):  7.950E-05 0.000E+00

     total cpu time spent up to now is        0.8 secs

     total energy              =    -325.60324167 Ry
     estimated scf accuracy    <       0.02872869 Ry

     iteration #  2     ecut=    51.00 Ry     beta= 0.70
     Davidson diagonalization with overlap
     ethr =  1.03E-04,  avg # of iterations =  1.0

     negative rho (up, down):  1.432E-04 0.000E+00

     total cpu time spent up to now is        0.8 secs

     total energy              =    -325.60422948 Ry
     estimated scf accuracy    <       0.00162654 Ry

     iteration #  3     ecut=    51.00 Ry     beta= 0.70
     Davidson diagonalization with overlap
     ethr =  5.81E-06,  avg # of iterations =  2.1

     negative rho (up, down):  1.573E-04 0.000E+00

     total cpu time spent up to now is        0.8 secs

     total energy              =    -325.60436557 Ry
     estimated scf accuracy    <       0.00003997 Ry

     iteration #  4     ecut=    51.00 Ry     beta= 0.70
     Davidson diagonalization with overlap
     ethr =  1.43E-07,  avg # of iterations =  3.6

     negative rho (up, down):  1.661E-04 0.000E+00

     total cpu time spent up to now is        0.8 secs

     total energy              =    -325.60437831 Ry
     estimated scf accuracy    <       0.00000332 Ry

     iteration #  5     ecut=    51.00 Ry     beta= 0.70
     Davidson diagonalization with overlap
     ethr =  1.18E-08,  avg # of iterations =  3.2

     negative rho (up, down):  1.653E-04 0.000E+00

     total cpu time spent up to now is        0.9 secs

     total energy              =    -325.60437886 Ry
     estimated scf accuracy    <       0.00000032 Ry

     iteration #  6     ecut=    51.00 Ry     beta= 0.70
     Davidson diagonalization with overlap
     ethr =  1.14E-09,  avg # of iterations =  2.1

     negative rho (up, down):  1.657E-04 0.000E+00

     total cpu time spent up to now is        0.9 secs

     End of self-consistent calculation

          k = 0.0000 0.0000 0.0000 (  2741 PWs)   bands (ev):

   -13.6999 -13.6999 -13.6999 -13.6410 -13.6410 -13.3230 -13.3230 -13.3230
   -13.3146 -13.3146  -2.7007   7.3342   8.0638   8.0638

          k =-0.2500 0.2500-0.2500 (  2809 PWs)   bands (ev):

   -13.7263 -13.7263 -13.6870 -13.6004 -13.6004 -13.3691 -13.3691 -13.3402
   -13.2775 -13.2775  -2.1087   3.9179   7.3007   7.3007

          k = 0.5000-0.5000 0.5000 (  2824 PWs)   bands (ev):

   -13.7373 -13.7373 -13.6729 -13.5792 -13.5792 -13.3855 -13.3855 -13.3580
   -13.2657 -13.2657  -1.0624   1.6350   6.8434   6.8434

          k = 0.0000 0.5000 0.0000 (  2826 PWs)   bands (ev):

   -13.7284 -13.7284 -13.7044 -13.5925 -13.5427 -13.4562 -13.3617 -13.2932
   -13.2822 -13.2822  -1.8917   3.8036   6.3565   6.3565

          k = 0.7500-0.2500 0.7500 (  2816 PWs)   bands (ev):

   -13.7672 -13.7466 -13.6404 -13.5416 -13.5124 -13.4841 -13.4166 -13.3677
   -13.2537 -13.2326  -0.7145   1.6728   5.0204   6.0393

          k = 0.5000 0.0000 0.5000 (  2810 PWs)   bands (ev):

   -13.7605 -13.7485 -13.6341 -13.5763 -13.5386 -13.4304 -13.3993 -13.3852
   -13.2499 -13.2429  -1.2018   2.3651   4.9310   6.7748

          k = 0.0000-1.0000 0.0000 (  2794 PWs)   bands (ev):

   -13.7525 -13.7525 -13.6160 -13.6160 -13.4761 -13.4761 -13.3904 -13.3904
   -13.2446 -13.2446   0.4176   0.4176   5.4848   5.4848

          k =-0.5000-1.0000 0.0000 (  2780 PWs)   bands (ev):

   -13.7706 -13.7706 -13.5569 -13.5569 -13.4853 -13.4853 -13.4399 -13.4399
   -13.2269 -13.2269   0.4778   0.4778   4.9010   4.9010

     highest occupied level (ev):     8.0638

!    total energy              =    -325.60437891 Ry
     estimated scf accuracy    <       0.00000007 Ry

     The total energy is the sum of the following terms:
     one-electron contribution =    -150.96131179 Ry
     hartree contribution      =      93.24827880 Ry
     xc contribution           =     -95.23191550 Ry
     ewald contribution        =    -172.65943042 Ry

     convergence has been achieved in   6 iterations

     Writing all to output data dir ./alpha-sn-scf/alphatin.save/ :
     XML data file, charge density, pseudopotentials, collected wavefunctions

     init_run     :      0.37s CPU      0.42s WALL (       1 calls)
     electrons    :      0.15s CPU      0.20s WALL (       1 calls)

     Called by init_run:
     wfcinit      :      0.01s CPU      0.02s WALL (       1 calls)
     potinit      :      0.01s CPU      0.02s WALL (       1 calls)
     hinit0       :      0.32s CPU      0.34s WALL (       1 calls)

     Called by electrons:
     c_bands      :      0.07s CPU      0.09s WALL (       7 calls)
     sum_band     :      0.04s CPU      0.04s WALL (       7 calls)
     v_of_rho     :      0.02s CPU      0.03s WALL (       7 calls)
     newd         :      0.02s CPU      0.02s WALL (       7 calls)
     mix_rho      :      0.00s CPU      0.00s WALL (       7 calls)

     Called by c_bands:
     init_us_2    :      0.00s CPU      0.00s WALL (      15 calls)
     cegterg      :      0.06s CPU      0.06s WALL (       7 calls)

     Called by *egterg:
     cdiaghg      :      0.01s CPU      0.01s WALL (      24 calls)
     h_psi        :      0.05s CPU      0.06s WALL (      26 calls)
     s_psi        :      0.00s CPU      0.00s WALL (      26 calls)
     g_psi        :      0.00s CPU      0.00s WALL (      18 calls)

     Called by h_psi:
     h_psi:calbec :      0.00s CPU      0.00s WALL (      26 calls)
     vloc_psi     :      0.04s CPU      0.05s WALL (      26 calls)
     add_vuspsi   :      0.00s CPU      0.00s WALL (      26 calls)

     General routines
     calbec       :      0.00s CPU      0.00s WALL (      33 calls)
     fft          :      0.30s CPU      0.31s WALL (      78 calls)
     ffts         :      0.00s CPU      0.00s WALL (       7 calls)
     fftw         :      0.05s CPU      0.06s WALL (     612 calls)

     Parallel routines

     PWSCF        :      0.76s CPU      1.00s WALL


   This run was terminated on:  16: 9: 3   5Feb2026            

=------------------------------------------------------------------------------=
   JOB DONE.
=------------------------------------------------------------------------------=
