
     Program PWSCF v.7.3.1 starts on  5Feb2026 at 16: 7: 5 

     This program is part of the open-source Quantum ESPRESSO suite
     for quantum simulation of materials; please cite
         "P. Giannozzi et al., J. Phys.:Condens. Matter 21 395502 (2009);
         "P. Giannozzi et al., J. Phys.:Condens. Matter 29 465901 (2017);
         "P. Giannozzi et al., J. Chem. Phys. 152 154105 (2020);
          URL http://www.quantum-espresso.org", 
     in publications or presentations arising from this work. More details at
     http://www.quantum-espresso.org/quote

     Parallel version (MPI), running on   128 processors

     MPI processes distributed on     1 nodes
     241400 MiB available memory on the printing compute node when the environment starts

     Waiting for input...
     Reading input from standard input
     Message from routine read_cards :
     DEPRECATED: no units specified in ATOMIC_POSITIONS card
     Message from routine read_cards :
     ATOMIC_POSITIONS: units set to alat

     Current dimensions of program PWSCF are:
     Max number of different atomic species (ntypx) = 10
     Max number of k-points (npk) =  40000
     Max angular momentum in pseudopotentials (lmaxx) =  4

     K-points division:     npool     =       8
     R & G space division:  proc/nbgrp/npool/nimage =      16
     Subspace diagonalization in iterative solution of the eigenvalue problem:
     a serial algorithm will be used


     Parallelization info
     --------------------
     sticks:   dense  smooth     PW     G-vecs:    dense   smooth      PW
     Min          50      50     15                  940      940     152
     Max          51      51     16                  943      943     155
     Sum         805     805    241                15065    15065    2445

     Using Slab Decomposition



     bravais-lattice index     =            2
     lattice parameter (alat)  =      12.2300  a.u.
     unit-cell volume          =     457.3191 (a.u.)^3
     number of atoms/cell      =            2
     number of atomic types    =            1
     number of electrons       =        28.00
     number of Kohn-Sham states=           14
     kinetic-energy cutoff     =      39.0000  Ry
     charge density cutoff     =     156.0000  Ry
     scf convergence threshold =      1.0E-07
     mixing beta               =       0.7000
     number of iterations used =            8  plain     mixing
     Exchange-correlation=  SLA  PW   GGX  GGC
                           (   1   4   2   2   0   0   0)

     celldm(1)=  12.230000  celldm(2)=   0.000000  celldm(3)=   0.000000
     celldm(4)=   0.000000  celldm(5)=   0.000000  celldm(6)=   0.000000

     crystal axes: (cart. coord. in units of alat)
               a(1) = (  -0.500000   0.000000   0.500000 )  
               a(2) = (   0.000000   0.500000   0.500000 )  
               a(3) = (  -0.500000   0.500000   0.000000 )  

     reciprocal axes: (cart. coord. in units 2 pi/alat)
               b(1) = ( -1.000000 -1.000000  1.000000 )  
               b(2) = (  1.000000  1.000000  1.000000 )  
               b(3) = ( -1.000000  1.000000 -1.000000 )  


     PseudoPot. # 1 for Sn read from file:
     ./Sn.pw91-n-van.UPF
     MD5 check sum: a38d2a872edd1a4efd76c0a1a38f7031
     Pseudo is Ultrasoft + core correction, Zval = 14.0
     Generated by new atomic code, or converted to UPF format
     Using radial grid of  891 points,  6 beta functions with: 
                l(1) =   0
                l(2) =   0
                l(3) =   1
                l(4) =   1
                l(5) =   2
                l(6) =   2
     Q(r) pseudized with  8 coefficients,  rinner =    1.100   1.100   1.100
                                                       1.100   1.100

     atomic species   valence    mass     pseudopotential
     Sn               14.00   118.70000     Sn( 1.00)

     48 Sym. Ops., with inversion, found (24 have fractional translation)



   Cartesian axes

     site n.     atom                  positions (alat units)
         1        Sn     tau(   1) = (   0.0000000   0.0000000   0.0000000  )
         2        Sn     tau(   2) = (   0.2500000   0.2500000   0.2500000  )

     number of k points=     8
                       cart. coord. in units 2pi/alat
        k(    1) = (   0.0000000   0.0000000   0.0000000), wk =   0.0312500
        k(    2) = (  -0.2500000   0.2500000  -0.2500000), wk =   0.2500000
        k(    3) = (   0.5000000  -0.5000000   0.5000000), wk =   0.1250000
        k(    4) = (   0.0000000   0.5000000   0.0000000), wk =   0.1875000
        k(    5) = (   0.7500000  -0.2500000   0.7500000), wk =   0.7500000
        k(    6) = (   0.5000000   0.0000000   0.5000000), wk =   0.3750000
        k(    7) = (   0.0000000  -1.0000000   0.0000000), wk =   0.0937500
        k(    8) = (  -0.5000000  -1.0000000   0.0000000), wk =   0.1875000

     Dense  grid:    15065 G-vectors     FFT dimensions: (  36,  36,  36)

     Estimated max dynamical RAM per process >       2.10 MB

     Estimated total dynamical RAM >     242.90 MB

     Initial potential from superposition of free atoms

     starting charge      27.9964, renormalised to      28.0000
     Starting wfcs are   18 randomized atomic wfcs

     total cpu time spent up to now is        0.6 secs

     per-process dynamical memory:     9.7 Mb

     Self-consistent Calculation

     iteration #  1     ecut=    39.00 Ry     beta= 0.70
     Davidson diagonalization with overlap
     ethr =  1.00E-02,  avg # of iterations =  1.5

     Threshold (ethr) on eigenvalues was too large:
     Diagonalizing with lowered threshold

     Davidson diagonalization with overlap
     ethr =  8.42E-05,  avg # of iterations =  2.1

     negative rho (up, down):  1.048E-05 0.000E+00

     total cpu time spent up to now is        0.7 secs

     total energy              =    -325.59952689 Ry
     estimated scf accuracy    <       0.02872553 Ry

     iteration #  2     ecut=    39.00 Ry     beta= 0.70
     Davidson diagonalization with overlap
     ethr =  1.03E-04,  avg # of iterations =  1.0

     negative rho (up, down):  3.830E-05 0.000E+00

     total cpu time spent up to now is        0.7 secs

     total energy              =    -325.60048667 Ry
     estimated scf accuracy    <       0.00163326 Ry

     iteration #  3     ecut=    39.00 Ry     beta= 0.70
     Davidson diagonalization with overlap
     ethr =  5.83E-06,  avg # of iterations =  2.1

     negative rho (up, down):  5.299E-05 0.000E+00

     total cpu time spent up to now is        0.7 secs

     total energy              =    -325.60062027 Ry
     estimated scf accuracy    <       0.00003962 Ry

     iteration #  4     ecut=    39.00 Ry     beta= 0.70
     Davidson diagonalization with overlap
     ethr =  1.42E-07,  avg # of iterations =  3.1

     negative rho (up, down):  6.212E-05 0.000E+00

     total cpu time spent up to now is        0.8 secs

     total energy              =    -325.60063176 Ry
     estimated scf accuracy    <       0.00000330 Ry

     iteration #  5     ecut=    39.00 Ry     beta= 0.70
     Davidson diagonalization with overlap
     ethr =  1.18E-08,  avg # of iterations =  4.0

     negative rho (up, down):  6.101E-05 0.000E+00

     total cpu time spent up to now is        0.8 secs

     total energy              =    -325.60063240 Ry
     estimated scf accuracy    <       0.00000032 Ry

     iteration #  6     ecut=    39.00 Ry     beta= 0.70
     Davidson diagonalization with overlap
     ethr =  1.15E-09,  avg # of iterations =  2.4

     negative rho (up, down):  6.165E-05 0.000E+00

     total cpu time spent up to now is        0.8 secs

     End of self-consistent calculation

          k = 0.0000 0.0000 0.0000 (  1893 PWs)   bands (ev):

   -13.6980 -13.6980 -13.6980 -13.6396 -13.6396 -13.3221 -13.3221 -13.3221
   -13.3129 -13.3129  -2.7007   7.3333   8.0643   8.0643

          k =-0.2500 0.2500-0.2500 (  1889 PWs)   bands (ev):

   -13.7244 -13.7244 -13.6851 -13.5990 -13.5990 -13.3674 -13.3674 -13.3384
   -13.2756 -13.2756  -2.1087   3.9179   7.3011   7.3011

          k = 0.5000-0.5000 0.5000 (  1892 PWs)   bands (ev):

   -13.7350 -13.7350 -13.6708 -13.5779 -13.5779 -13.3840 -13.3840 -13.3555
   -13.2639 -13.2639  -1.0625   1.6351   6.8438   6.8438

          k = 0.0000 0.5000 0.0000 (  1876 PWs)   bands (ev):

   -13.7262 -13.7262 -13.7020 -13.5907 -13.5408 -13.4543 -13.3595 -13.2916
   -13.2801 -13.2801  -1.8917   3.8035   6.3570   6.3570

          k = 0.7500-0.2500 0.7500 (  1881 PWs)   bands (ev):

   -13.7648 -13.7445 -13.6384 -13.5401 -13.5107 -13.4824 -13.4146 -13.3659
   -13.2516 -13.2306  -0.7145   1.6728   5.0209   6.0398

          k = 0.5000 0.0000 0.5000 (  1883 PWs)   bands (ev):

   -13.7582 -13.7464 -13.6322 -13.5748 -13.5366 -13.4291 -13.3970 -13.3834
   -13.2480 -13.2409  -1.2018   2.3651   4.9315   6.7752

          k = 0.0000-1.0000 0.0000 (  1868 PWs)   bands (ev):

   -13.7497 -13.7497 -13.6142 -13.6142 -13.4742 -13.4742 -13.3892 -13.3892
   -13.2420 -13.2420   0.4175   0.4175   5.4853   5.4853

          k =-0.5000-1.0000 0.0000 (  1888 PWs)   bands (ev):

   -13.7685 -13.7685 -13.5554 -13.5554 -13.4838 -13.4838 -13.4380 -13.4380
   -13.2251 -13.2251   0.4777   0.4777   4.9016   4.9016

     highest occupied level (ev):     8.0643

!    total energy              =    -325.60063245 Ry
     estimated scf accuracy    <       0.00000007 Ry

     The total energy is the sum of the following terms:
     one-electron contribution =    -150.95610856 Ry
     hartree contribution      =      93.24723062 Ry
     xc contribution           =     -95.23232413 Ry
     ewald contribution        =    -172.65943039 Ry

     convergence has been achieved in   6 iterations

     Writing all to output data dir ./alpha-sn-scf/alphatin.save/ :
     XML data file, charge density, pseudopotentials, collected wavefunctions

     init_run     :      0.33s CPU      0.36s WALL (       1 calls)
     electrons    :      0.13s CPU      0.18s WALL (       1 calls)

     Called by init_run:
     wfcinit      :      0.01s CPU      0.01s WALL (       1 calls)
     potinit      :      0.02s CPU      0.02s WALL (       1 calls)
     hinit0       :      0.28s CPU      0.29s WALL (       1 calls)

     Called by electrons:
     c_bands      :      0.06s CPU      0.07s WALL (       7 calls)
     sum_band     :      0.02s CPU      0.03s WALL (       7 calls)
     v_of_rho     :      0.03s CPU      0.03s WALL (       7 calls)
     newd         :      0.01s CPU      0.01s WALL (       7 calls)
     mix_rho      :      0.00s CPU      0.00s WALL (       7 calls)

     Called by c_bands:
     init_us_2    :      0.00s CPU      0.00s WALL (      15 calls)
     cegterg      :      0.05s CPU      0.05s WALL (       7 calls)

     Called by *egterg:
     cdiaghg      :      0.01s CPU      0.01s WALL (      27 calls)
     h_psi        :      0.05s CPU      0.05s WALL (      29 calls)
     s_psi        :      0.00s CPU      0.00s WALL (      29 calls)
     g_psi        :      0.00s CPU      0.00s WALL (      21 calls)

     Called by h_psi:
     h_psi:calbec :      0.00s CPU      0.00s WALL (      29 calls)
     vloc_psi     :      0.05s CPU      0.05s WALL (      29 calls)
     add_vuspsi   :      0.00s CPU      0.00s WALL (      29 calls)

     General routines
     calbec       :      0.00s CPU      0.00s WALL (      36 calls)
     fft          :      0.26s CPU      0.27s WALL (      78 calls)
     ffts         :      0.00s CPU      0.00s WALL (       7 calls)
     fftw         :      0.05s CPU      0.05s WALL (     618 calls)

     Parallel routines

     PWSCF        :      0.89s CPU      1.12s WALL


   This run was terminated on:  16: 7: 7   5Feb2026            

=------------------------------------------------------------------------------=
   JOB DONE.
=------------------------------------------------------------------------------=
