
     Program PWSCF v.7.3.1 starts on  5Feb2026 at 16:19:55 

     This program is part of the open-source Quantum ESPRESSO suite
     for quantum simulation of materials; please cite
         "P. Giannozzi et al., J. Phys.:Condens. Matter 21 395502 (2009);
         "P. Giannozzi et al., J. Phys.:Condens. Matter 29 465901 (2017);
         "P. Giannozzi et al., J. Chem. Phys. 152 154105 (2020);
          URL http://www.quantum-espresso.org", 
     in publications or presentations arising from this work. More details at
     http://www.quantum-espresso.org/quote

     Parallel version (MPI), running on   128 processors

     MPI processes distributed on     1 nodes
     241225 MiB available memory on the printing compute node when the environment starts

     Waiting for input...
     Reading input from standard input
     Message from routine read_cards :
     DEPRECATED: no units specified in ATOMIC_POSITIONS card
     Message from routine read_cards :
     ATOMIC_POSITIONS: units set to alat

     Current dimensions of program PWSCF are:
     Max number of different atomic species (ntypx) = 10
     Max number of k-points (npk) =  40000
     Max angular momentum in pseudopotentials (lmaxx) =  4

     K-points division:     npool     =       8
     R & G space division:  proc/nbgrp/npool/nimage =      16
     Subspace diagonalization in iterative solution of the eigenvalue problem:
     a serial algorithm will be used


     Parallelization info
     --------------------
     sticks:   dense  smooth     PW     G-vecs:    dense   smooth      PW
     Min         145     145     40                 4637     4637     683
     Max         146     146     41                 4641     4641     687
     Sum        2335    2335    649                74249    74249   10969

     Using Slab Decomposition



     bravais-lattice index     =            2
     lattice parameter (alat)  =      12.2300  a.u.
     unit-cell volume          =     457.3191 (a.u.)^3
     number of atoms/cell      =            2
     number of atomic types    =            1
     number of electrons       =        28.00
     number of Kohn-Sham states=           14
     kinetic-energy cutoff     =     113.0000  Ry
     charge density cutoff     =     452.0000  Ry
     scf convergence threshold =      1.0E-07
     mixing beta               =       0.7000
     number of iterations used =            8  plain     mixing
     Exchange-correlation=  SLA  PW   GGX  GGC
                           (   1   4   2   2   0   0   0)

     celldm(1)=  12.230000  celldm(2)=   0.000000  celldm(3)=   0.000000
     celldm(4)=   0.000000  celldm(5)=   0.000000  celldm(6)=   0.000000

     crystal axes: (cart. coord. in units of alat)
               a(1) = (  -0.500000   0.000000   0.500000 )  
               a(2) = (   0.000000   0.500000   0.500000 )  
               a(3) = (  -0.500000   0.500000   0.000000 )  

     reciprocal axes: (cart. coord. in units 2 pi/alat)
               b(1) = ( -1.000000 -1.000000  1.000000 )  
               b(2) = (  1.000000  1.000000  1.000000 )  
               b(3) = ( -1.000000  1.000000 -1.000000 )  


     PseudoPot. # 1 for Sn read from file:
     ./Sn.pw91-n-van.UPF
     MD5 check sum: a38d2a872edd1a4efd76c0a1a38f7031
     Pseudo is Ultrasoft + core correction, Zval = 14.0
     Generated by new atomic code, or converted to UPF format
     Using radial grid of  891 points,  6 beta functions with: 
                l(1) =   0
                l(2) =   0
                l(3) =   1
                l(4) =   1
                l(5) =   2
                l(6) =   2
     Q(r) pseudized with  8 coefficients,  rinner =    1.100   1.100   1.100
                                                       1.100   1.100

     atomic species   valence    mass     pseudopotential
     Sn               14.00   118.70000     Sn( 1.00)

     48 Sym. Ops., with inversion, found (24 have fractional translation)



   Cartesian axes

     site n.     atom                  positions (alat units)
         1        Sn     tau(   1) = (   0.0000000   0.0000000   0.0000000  )
         2        Sn     tau(   2) = (   0.2500000   0.2500000   0.2500000  )

     number of k points=     8
                       cart. coord. in units 2pi/alat
        k(    1) = (   0.0000000   0.0000000   0.0000000), wk =   0.0312500
        k(    2) = (  -0.2500000   0.2500000  -0.2500000), wk =   0.2500000
        k(    3) = (   0.5000000  -0.5000000   0.5000000), wk =   0.1250000
        k(    4) = (   0.0000000   0.5000000   0.0000000), wk =   0.1875000
        k(    5) = (   0.7500000  -0.2500000   0.7500000), wk =   0.7500000
        k(    6) = (   0.5000000   0.0000000   0.5000000), wk =   0.3750000
        k(    7) = (   0.0000000  -1.0000000   0.0000000), wk =   0.0937500
        k(    8) = (  -0.5000000  -1.0000000   0.0000000), wk =   0.1875000

     Dense  grid:    74249 G-vectors     FFT dimensions: (  60,  60,  60)

     Estimated max dynamical RAM per process >       6.79 MB

     Estimated total dynamical RAM >     742.52 MB

     Initial potential from superposition of free atoms

     starting charge      27.9964, renormalised to      28.0000
     Starting wfcs are   18 randomized atomic wfcs

     total cpu time spent up to now is        0.9 secs

     per-process dynamical memory:    14.1 Mb

     Self-consistent Calculation

     iteration #  1     ecut=   113.00 Ry     beta= 0.70
     Davidson diagonalization with overlap
     ethr =  1.00E-02,  avg # of iterations =  1.6

     Threshold (ethr) on eigenvalues was too large:
     Diagonalizing with lowered threshold

     Davidson diagonalization with overlap
     ethr =  8.25E-05,  avg # of iterations =  2.2

     total cpu time spent up to now is        1.0 secs

     total energy              =    -325.61559727 Ry
     estimated scf accuracy    <       0.02902130 Ry

     iteration #  2     ecut=   113.00 Ry     beta= 0.70
     Davidson diagonalization with overlap
     ethr =  1.04E-04,  avg # of iterations =  1.0

     total cpu time spent up to now is        1.1 secs

     total energy              =    -325.61678759 Ry
     estimated scf accuracy    <       0.00154480 Ry

     iteration #  3     ecut=   113.00 Ry     beta= 0.70
     Davidson diagonalization with overlap
     ethr =  5.52E-06,  avg # of iterations =  2.1

     total cpu time spent up to now is        1.1 secs

     total energy              =    -325.61691925 Ry
     estimated scf accuracy    <       0.00003401 Ry

     iteration #  4     ecut=   113.00 Ry     beta= 0.70
     Davidson diagonalization with overlap
     ethr =  1.21E-07,  avg # of iterations =  3.4

     negative rho (up, down):  1.824E-06 0.000E+00

     total cpu time spent up to now is        1.2 secs

     total energy              =    -325.61692965 Ry
     estimated scf accuracy    <       0.00000286 Ry

     iteration #  5     ecut=   113.00 Ry     beta= 0.70
     Davidson diagonalization with overlap
     ethr =  1.02E-08,  avg # of iterations =  3.5

     negative rho (up, down):  1.674E-06 0.000E+00

     total cpu time spent up to now is        1.2 secs

     total energy              =    -325.61693025 Ry
     estimated scf accuracy    <       0.00000020 Ry

     iteration #  6     ecut=   113.00 Ry     beta= 0.70
     Davidson diagonalization with overlap
     ethr =  7.01E-10,  avg # of iterations =  2.5

     negative rho (up, down):  1.786E-06 0.000E+00

     total cpu time spent up to now is        1.3 secs

     End of self-consistent calculation

          k = 0.0000 0.0000 0.0000 (  9377 PWs)   bands (ev):

   -13.7070 -13.7070 -13.7070 -13.6480 -13.6480 -13.3305 -13.3305 -13.3305
   -13.3216 -13.3216  -2.7005   7.3360   8.0636   8.0636

          k =-0.2500 0.2500-0.2500 (  9273 PWs)   bands (ev):

   -13.7332 -13.7332 -13.6937 -13.6071 -13.6071 -13.3760 -13.3760 -13.3471
   -13.2844 -13.2844  -2.1085   3.9183   7.3005   7.3005

          k = 0.5000-0.5000 0.5000 (  9264 PWs)   bands (ev):

   -13.7439 -13.7439 -13.6798 -13.5859 -13.5859 -13.3921 -13.3921 -13.3648
   -13.2726 -13.2726  -1.0621   1.6349   6.8433   6.8433

          k = 0.0000 0.5000 0.0000 (  9229 PWs)   bands (ev):

   -13.7350 -13.7350 -13.7110 -13.5992 -13.5493 -13.4629 -13.3683 -13.3000
   -13.2889 -13.2889  -1.8915   3.8043   6.3563   6.3563

          k = 0.7500-0.2500 0.7500 (  9257 PWs)   bands (ev):

   -13.7739 -13.7533 -13.6471 -13.5483 -13.5191 -13.4909 -13.4233 -13.3746
   -13.2606 -13.2395  -0.7141   1.6732   5.0197   6.0391

          k = 0.5000 0.0000 0.5000 (  9275 PWs)   bands (ev):

   -13.7673 -13.7553 -13.6409 -13.5829 -13.5452 -13.4373 -13.4062 -13.3920
   -13.2568 -13.2498  -1.2015   2.3656   4.9302   6.7746

          k = 0.0000-1.0000 0.0000 (  9272 PWs)   bands (ev):

   -13.7592 -13.7592 -13.6228 -13.6228 -13.4829 -13.4829 -13.3975 -13.3975
   -13.2516 -13.2516   0.4180   0.4180   5.4846   5.4846

          k =-0.5000-1.0000 0.0000 (  9308 PWs)   bands (ev):

   -13.7774 -13.7774 -13.5639 -13.5639 -13.4922 -13.4922 -13.4468 -13.4468
   -13.2341 -13.2341   0.4783   0.4783   4.9003   4.9003

     highest occupied level (ev):     8.0636

!    total energy              =    -325.61693028 Ry
     estimated scf accuracy    <       0.00000005 Ry

     The total energy is the sum of the following terms:
     one-electron contribution =    -150.97588624 Ry
     hartree contribution      =      93.25075275 Ry
     xc contribution           =     -95.23236644 Ry
     ewald contribution        =    -172.65943036 Ry

     convergence has been achieved in   6 iterations

     Writing all to output data dir ./alpha-sn-scf/alphatin.save/ :
     XML data file, charge density, pseudopotentials, collected wavefunctions

     init_run     :      0.56s CPU      0.60s WALL (       1 calls)
     electrons    :      0.39s CPU      0.44s WALL (       1 calls)

     Called by init_run:
     wfcinit      :      0.01s CPU      0.02s WALL (       1 calls)
     potinit      :      0.03s CPU      0.03s WALL (       1 calls)
     hinit0       :      0.46s CPU      0.46s WALL (       1 calls)

     Called by electrons:
     c_bands      :      0.16s CPU      0.17s WALL (       7 calls)
     sum_band     :      0.09s CPU      0.09s WALL (       7 calls)
     v_of_rho     :      0.09s CPU      0.10s WALL (       7 calls)
     newd         :      0.03s CPU      0.04s WALL (       7 calls)
     mix_rho      :      0.01s CPU      0.01s WALL (       7 calls)

     Called by c_bands:
     init_us_2    :      0.00s CPU      0.01s WALL (      15 calls)
     cegterg      :      0.14s CPU      0.15s WALL (       7 calls)

     Called by *egterg:
     cdiaghg      :      0.01s CPU      0.01s WALL (      27 calls)
     h_psi        :      0.13s CPU      0.14s WALL (      29 calls)
     s_psi        :      0.00s CPU      0.00s WALL (      29 calls)
     g_psi        :      0.00s CPU      0.00s WALL (      21 calls)

     Called by h_psi:
     h_psi:calbec :      0.01s CPU      0.01s WALL (      29 calls)
     vloc_psi     :      0.11s CPU      0.12s WALL (      29 calls)
     add_vuspsi   :      0.00s CPU      0.00s WALL (      29 calls)

     General routines
     calbec       :      0.01s CPU      0.01s WALL (      36 calls)
     fft          :      0.46s CPU      0.47s WALL (      78 calls)
     ffts         :      0.00s CPU      0.00s WALL (       7 calls)
     fftw         :      0.12s CPU      0.13s WALL (     634 calls)

     Parallel routines

     PWSCF        :      3.53s CPU      3.79s WALL


   This run was terminated on:  16:19:59   5Feb2026            

=------------------------------------------------------------------------------=
   JOB DONE.
=------------------------------------------------------------------------------=
