
     Program PWSCF v.7.3.1 starts on  5Feb2026 at 16: 8:10 

     This program is part of the open-source Quantum ESPRESSO suite
     for quantum simulation of materials; please cite
         "P. Giannozzi et al., J. Phys.:Condens. Matter 21 395502 (2009);
         "P. Giannozzi et al., J. Phys.:Condens. Matter 29 465901 (2017);
         "P. Giannozzi et al., J. Chem. Phys. 152 154105 (2020);
          URL http://www.quantum-espresso.org", 
     in publications or presentations arising from this work. More details at
     http://www.quantum-espresso.org/quote

     Parallel version (MPI), running on   128 processors

     MPI processes distributed on     1 nodes
     241347 MiB available memory on the printing compute node when the environment starts

     Waiting for input...
     Reading input from standard input
     Message from routine read_cards :
     DEPRECATED: no units specified in ATOMIC_POSITIONS card
     Message from routine read_cards :
     ATOMIC_POSITIONS: units set to alat

     Current dimensions of program PWSCF are:
     Max number of different atomic species (ntypx) = 10
     Max number of k-points (npk) =  40000
     Max angular momentum in pseudopotentials (lmaxx) =  4

     K-points division:     npool     =       8
     R & G space division:  proc/nbgrp/npool/nimage =      16
     Subspace diagonalization in iterative solution of the eigenvalue problem:
     a serial algorithm will be used


     Parallelization info
     --------------------
     sticks:   dense  smooth     PW     G-vecs:    dense   smooth      PW
     Min          57      57     16                 1163     1163     185
     Max          58      58     17                 1168     1168     187
     Sum         925     925    271                18643    18643    2975

     Using Slab Decomposition



     bravais-lattice index     =            2
     lattice parameter (alat)  =      12.2300  a.u.
     unit-cell volume          =     457.3191 (a.u.)^3
     number of atoms/cell      =            2
     number of atomic types    =            1
     number of electrons       =        28.00
     number of Kohn-Sham states=           14
     kinetic-energy cutoff     =      45.0000  Ry
     charge density cutoff     =     180.0000  Ry
     scf convergence threshold =      1.0E-07
     mixing beta               =       0.7000
     number of iterations used =            8  plain     mixing
     Exchange-correlation=  SLA  PW   GGX  GGC
                           (   1   4   2   2   0   0   0)

     celldm(1)=  12.230000  celldm(2)=   0.000000  celldm(3)=   0.000000
     celldm(4)=   0.000000  celldm(5)=   0.000000  celldm(6)=   0.000000

     crystal axes: (cart. coord. in units of alat)
               a(1) = (  -0.500000   0.000000   0.500000 )  
               a(2) = (   0.000000   0.500000   0.500000 )  
               a(3) = (  -0.500000   0.500000   0.000000 )  

     reciprocal axes: (cart. coord. in units 2 pi/alat)
               b(1) = ( -1.000000 -1.000000  1.000000 )  
               b(2) = (  1.000000  1.000000  1.000000 )  
               b(3) = ( -1.000000  1.000000 -1.000000 )  


     PseudoPot. # 1 for Sn read from file:
     ./Sn.pw91-n-van.UPF
     MD5 check sum: a38d2a872edd1a4efd76c0a1a38f7031
     Pseudo is Ultrasoft + core correction, Zval = 14.0
     Generated by new atomic code, or converted to UPF format
     Using radial grid of  891 points,  6 beta functions with: 
                l(1) =   0
                l(2) =   0
                l(3) =   1
                l(4) =   1
                l(5) =   2
                l(6) =   2
     Q(r) pseudized with  8 coefficients,  rinner =    1.100   1.100   1.100
                                                       1.100   1.100

     atomic species   valence    mass     pseudopotential
     Sn               14.00   118.70000     Sn( 1.00)

     48 Sym. Ops., with inversion, found (24 have fractional translation)



   Cartesian axes

     site n.     atom                  positions (alat units)
         1        Sn     tau(   1) = (   0.0000000   0.0000000   0.0000000  )
         2        Sn     tau(   2) = (   0.2500000   0.2500000   0.2500000  )

     number of k points=     8
                       cart. coord. in units 2pi/alat
        k(    1) = (   0.0000000   0.0000000   0.0000000), wk =   0.0312500
        k(    2) = (  -0.2500000   0.2500000  -0.2500000), wk =   0.2500000
        k(    3) = (   0.5000000  -0.5000000   0.5000000), wk =   0.1250000
        k(    4) = (   0.0000000   0.5000000   0.0000000), wk =   0.1875000
        k(    5) = (   0.7500000  -0.2500000   0.7500000), wk =   0.7500000
        k(    6) = (   0.5000000   0.0000000   0.5000000), wk =   0.3750000
        k(    7) = (   0.0000000  -1.0000000   0.0000000), wk =   0.0937500
        k(    8) = (  -0.5000000  -1.0000000   0.0000000), wk =   0.1875000

     Dense  grid:    18643 G-vectors     FFT dimensions: (  40,  40,  40)

     Estimated max dynamical RAM per process >       2.43 MB

     Estimated total dynamical RAM >     279.67 MB

     Initial potential from superposition of free atoms

     starting charge      27.9964, renormalised to      28.0000
     Starting wfcs are   18 randomized atomic wfcs

     total cpu time spent up to now is        0.7 secs

     per-process dynamical memory:    10.0 Mb

     Self-consistent Calculation

     iteration #  1     ecut=    45.00 Ry     beta= 0.70
     Davidson diagonalization with overlap
     ethr =  1.00E-02,  avg # of iterations =  1.5

     Threshold (ethr) on eigenvalues was too large:
     Diagonalizing with lowered threshold

     Davidson diagonalization with overlap
     ethr =  8.38E-05,  avg # of iterations =  2.1

     negative rho (up, down):  7.472E-05 0.000E+00

     total cpu time spent up to now is        0.8 secs

     total energy              =    -325.60262089 Ry
     estimated scf accuracy    <       0.02870461 Ry

     iteration #  2     ecut=    45.00 Ry     beta= 0.70
     Davidson diagonalization with overlap
     ethr =  1.03E-04,  avg # of iterations =  1.0

     negative rho (up, down):  1.158E-04 0.000E+00

     total cpu time spent up to now is        0.8 secs

     total energy              =    -325.60370210 Ry
     estimated scf accuracy    <       0.00163175 Ry

     iteration #  3     ecut=    45.00 Ry     beta= 0.70
     Davidson diagonalization with overlap
     ethr =  5.83E-06,  avg # of iterations =  2.1

     negative rho (up, down):  1.282E-04 0.000E+00

     total cpu time spent up to now is        0.8 secs

     total energy              =    -325.60383867 Ry
     estimated scf accuracy    <       0.00003896 Ry

     iteration #  4     ecut=    45.00 Ry     beta= 0.70
     Davidson diagonalization with overlap
     ethr =  1.39E-07,  avg # of iterations =  3.5

     negative rho (up, down):  1.358E-04 0.000E+00

     total cpu time spent up to now is        0.9 secs

     total energy              =    -325.60385135 Ry
     estimated scf accuracy    <       0.00000327 Ry

     iteration #  5     ecut=    45.00 Ry     beta= 0.70
     Davidson diagonalization with overlap
     ethr =  1.17E-08,  avg # of iterations =  3.5

     negative rho (up, down):  1.349E-04 0.000E+00

     total cpu time spent up to now is        0.9 secs

     total energy              =    -325.60385212 Ry
     estimated scf accuracy    <       0.00000031 Ry

     iteration #  6     ecut=    45.00 Ry     beta= 0.70
     Davidson diagonalization with overlap
     ethr =  1.10E-09,  avg # of iterations =  2.4

     negative rho (up, down):  1.353E-04 0.000E+00

     total cpu time spent up to now is        0.9 secs

     total energy              =    -325.60385217 Ry
     estimated scf accuracy    <       0.00000011 Ry

     iteration #  7     ecut=    45.00 Ry     beta= 0.70
     Davidson diagonalization with overlap
     ethr =  3.89E-10,  avg # of iterations =  2.0

     negative rho (up, down):  1.354E-04 0.000E+00

     total cpu time spent up to now is        0.9 secs

     End of self-consistent calculation

          k = 0.0000 0.0000 0.0000 (  2277 PWs)   bands (ev):

   -13.6999 -13.6999 -13.6999 -13.6408 -13.6408 -13.3232 -13.3232 -13.3232
   -13.3144 -13.3144  -2.6998   7.3347   8.0642   8.0642

          k =-0.2500 0.2500-0.2500 (  2328 PWs)   bands (ev):

   -13.7262 -13.7262 -13.6868 -13.6000 -13.6000 -13.3688 -13.3688 -13.3400
   -13.2772 -13.2772  -2.1079   3.9187   7.3011   7.3011

          k = 0.5000-0.5000 0.5000 (  2332 PWs)   bands (ev):

   -13.7370 -13.7370 -13.6728 -13.5788 -13.5788 -13.3850 -13.3850 -13.3577
   -13.2655 -13.2655  -1.0620   1.6362   6.8438   6.8438

          k = 0.0000 0.5000 0.0000 (  2333 PWs)   bands (ev):

   -13.7281 -13.7281 -13.7041 -13.5921 -13.5423 -13.4559 -13.3613 -13.2929
   -13.2819 -13.2819  -1.8910   3.8039   6.3572   6.3572

          k = 0.7500-0.2500 0.7500 (  2327 PWs)   bands (ev):

   -13.7670 -13.7464 -13.6402 -13.5413 -13.5121 -13.4838 -13.4161 -13.3674
   -13.2535 -13.2324  -0.7140   1.6733   5.0222   6.0400

          k = 0.5000 0.0000 0.5000 (  2325 PWs)   bands (ev):

   -13.7603 -13.7484 -13.6340 -13.5758 -13.5381 -13.4301 -13.3991 -13.3848
   -13.2496 -13.2427  -1.2012   2.3656   4.9330   6.7752

          k = 0.0000-1.0000 0.0000 (  2346 PWs)   bands (ev):

   -13.7523 -13.7523 -13.6158 -13.6158 -13.4757 -13.4757 -13.3903 -13.3903
   -13.2444 -13.2444   0.4180   0.4180   5.4856   5.4856

          k =-0.5000-1.0000 0.0000 (  2328 PWs)   bands (ev):

   -13.7704 -13.7704 -13.5568 -13.5568 -13.4850 -13.4850 -13.4396 -13.4396
   -13.2268 -13.2268   0.4782   0.4782   4.9029   4.9029

     highest occupied level (ev):     8.0642

!    total energy              =    -325.60385218 Ry
     estimated scf accuracy    <          1.7E-09 Ry

     The total energy is the sum of the following terms:
     one-electron contribution =    -150.96372403 Ry
     hartree contribution      =      93.25177682 Ry
     xc contribution           =     -95.23247457 Ry
     ewald contribution        =    -172.65943039 Ry

     convergence has been achieved in   7 iterations

     Writing all to output data dir ./alpha-sn-scf/alphatin.save/ :
     XML data file, charge density, pseudopotentials, collected wavefunctions

     init_run     :      0.38s CPU      0.42s WALL (       1 calls)
     electrons    :      0.15s CPU      0.21s WALL (       1 calls)

     Called by init_run:
     wfcinit      :      0.01s CPU      0.01s WALL (       1 calls)
     potinit      :      0.03s CPU      0.04s WALL (       1 calls)
     hinit0       :      0.32s CPU      0.33s WALL (       1 calls)

     Called by electrons:
     c_bands      :      0.07s CPU      0.08s WALL (       8 calls)
     sum_band     :      0.02s CPU      0.04s WALL (       8 calls)
     v_of_rho     :      0.03s CPU      0.04s WALL (       8 calls)
     newd         :      0.01s CPU      0.01s WALL (       8 calls)
     mix_rho      :      0.00s CPU      0.00s WALL (       8 calls)

     Called by c_bands:
     init_us_2    :      0.00s CPU      0.00s WALL (      17 calls)
     cegterg      :      0.06s CPU      0.07s WALL (       8 calls)

     Called by *egterg:
     cdiaghg      :      0.01s CPU      0.01s WALL (      28 calls)
     h_psi        :      0.05s CPU      0.06s WALL (      30 calls)
     s_psi        :      0.00s CPU      0.00s WALL (      30 calls)
     g_psi        :      0.00s CPU      0.00s WALL (      21 calls)

     Called by h_psi:
     h_psi:calbec :      0.00s CPU      0.00s WALL (      30 calls)
     vloc_psi     :      0.05s CPU      0.06s WALL (      30 calls)
     add_vuspsi   :      0.00s CPU      0.00s WALL (      30 calls)

     General routines
     calbec       :      0.00s CPU      0.00s WALL (      38 calls)
     fft          :      0.31s CPU      0.31s WALL (      89 calls)
     ffts         :      0.00s CPU      0.00s WALL (       8 calls)
     fftw         :      0.05s CPU      0.06s WALL (     700 calls)

     Parallel routines

     PWSCF        :      0.99s CPU      1.24s WALL


   This run was terminated on:  16: 8:11   5Feb2026            

=------------------------------------------------------------------------------=
   JOB DONE.
=------------------------------------------------------------------------------=
