
     Program PWSCF v.7.3.1 starts on  5Feb2026 at 16: 4:13 

     This program is part of the open-source Quantum ESPRESSO suite
     for quantum simulation of materials; please cite
         "P. Giannozzi et al., J. Phys.:Condens. Matter 21 395502 (2009);
         "P. Giannozzi et al., J. Phys.:Condens. Matter 29 465901 (2017);
         "P. Giannozzi et al., J. Chem. Phys. 152 154105 (2020);
          URL http://www.quantum-espresso.org", 
     in publications or presentations arising from this work. More details at
     http://www.quantum-espresso.org/quote

     Parallel version (MPI), running on   128 processors

     MPI processes distributed on     1 nodes
     241551 MiB available memory on the printing compute node when the environment starts

     Waiting for input...
     Reading input from standard input
     Message from routine read_cards :
     DEPRECATED: no units specified in ATOMIC_POSITIONS card
     Message from routine read_cards :
     ATOMIC_POSITIONS: units set to alat

     Current dimensions of program PWSCF are:
     Max number of different atomic species (ntypx) = 10
     Max number of k-points (npk) =  40000
     Max angular momentum in pseudopotentials (lmaxx) =  4

     K-points division:     npool     =       8
     R & G space division:  proc/nbgrp/npool/nimage =      16
     Subspace diagonalization in iterative solution of the eigenvalue problem:
     a serial algorithm will be used


     Parallelization info
     --------------------
     sticks:   dense  smooth     PW     G-vecs:    dense   smooth      PW
     Min          27      27      8                  372      372      66
     Max          28      28      9                  375      375      68
     Sum         433     433    139                 5961     5961    1067

     Using Slab Decomposition



     bravais-lattice index     =            2
     lattice parameter (alat)  =      12.2300  a.u.
     unit-cell volume          =     457.3191 (a.u.)^3
     number of atoms/cell      =            2
     number of atomic types    =            1
     number of electrons       =        28.00
     number of Kohn-Sham states=           14
     kinetic-energy cutoff     =      21.0000  Ry
     charge density cutoff     =      84.0000  Ry
     scf convergence threshold =      1.0E-07
     mixing beta               =       0.7000
     number of iterations used =            8  plain     mixing
     Exchange-correlation=  SLA  PW   GGX  GGC
                           (   1   4   2   2   0   0   0)

     celldm(1)=  12.230000  celldm(2)=   0.000000  celldm(3)=   0.000000
     celldm(4)=   0.000000  celldm(5)=   0.000000  celldm(6)=   0.000000

     crystal axes: (cart. coord. in units of alat)
               a(1) = (  -0.500000   0.000000   0.500000 )  
               a(2) = (   0.000000   0.500000   0.500000 )  
               a(3) = (  -0.500000   0.500000   0.000000 )  

     reciprocal axes: (cart. coord. in units 2 pi/alat)
               b(1) = ( -1.000000 -1.000000  1.000000 )  
               b(2) = (  1.000000  1.000000  1.000000 )  
               b(3) = ( -1.000000  1.000000 -1.000000 )  


     PseudoPot. # 1 for Sn read from file:
     ./Sn.pw91-n-van.UPF
     MD5 check sum: a38d2a872edd1a4efd76c0a1a38f7031
     Pseudo is Ultrasoft + core correction, Zval = 14.0
     Generated by new atomic code, or converted to UPF format
     Using radial grid of  891 points,  6 beta functions with: 
                l(1) =   0
                l(2) =   0
                l(3) =   1
                l(4) =   1
                l(5) =   2
                l(6) =   2
     Q(r) pseudized with  8 coefficients,  rinner =    1.100   1.100   1.100
                                                       1.100   1.100

     atomic species   valence    mass     pseudopotential
     Sn               14.00   118.70000     Sn( 1.00)

     48 Sym. Ops., with inversion, found (24 have fractional translation)



   Cartesian axes

     site n.     atom                  positions (alat units)
         1        Sn     tau(   1) = (   0.0000000   0.0000000   0.0000000  )
         2        Sn     tau(   2) = (   0.2500000   0.2500000   0.2500000  )

     number of k points=     8
                       cart. coord. in units 2pi/alat
        k(    1) = (   0.0000000   0.0000000   0.0000000), wk =   0.0312500
        k(    2) = (  -0.2500000   0.2500000  -0.2500000), wk =   0.2500000
        k(    3) = (   0.5000000  -0.5000000   0.5000000), wk =   0.1250000
        k(    4) = (   0.0000000   0.5000000   0.0000000), wk =   0.1875000
        k(    5) = (   0.7500000  -0.2500000   0.7500000), wk =   0.7500000
        k(    6) = (   0.5000000   0.0000000   0.5000000), wk =   0.3750000
        k(    7) = (   0.0000000  -1.0000000   0.0000000), wk =   0.0937500
        k(    8) = (  -0.5000000  -1.0000000   0.0000000), wk =   0.1875000

     Dense  grid:     5961 G-vectors     FFT dimensions: (  32,  32,  32)

     Estimated max dynamical RAM per process >       1.21 MB

     Estimated total dynamical RAM >     144.04 MB

     Check: negative core charge=   -0.000009

     Initial potential from superposition of free atoms

     starting charge      27.9964, renormalised to      28.0000
     Starting wfcs are   18 randomized atomic wfcs

     total cpu time spent up to now is        0.5 secs

     per-process dynamical memory:     8.6 Mb

     Self-consistent Calculation

     iteration #  1     ecut=    21.00 Ry     beta= 0.70
     Davidson diagonalization with overlap
     ethr =  1.00E-02,  avg # of iterations =  1.5

     Threshold (ethr) on eigenvalues was too large:
     Diagonalizing with lowered threshold

     Davidson diagonalization with overlap
     ethr =  1.17E-04,  avg # of iterations =  2.0

     total cpu time spent up to now is        0.6 secs

     total energy              =    -325.36115895 Ry
     estimated scf accuracy    <       0.03789927 Ry

     iteration #  2     ecut=    21.00 Ry     beta= 0.70
     Davidson diagonalization with overlap
     ethr =  1.35E-04,  avg # of iterations =  2.0

     negative rho (up, down):  9.324E-06 0.000E+00

     total cpu time spent up to now is        0.6 secs

     total energy              =    -325.36381741 Ry
     estimated scf accuracy    <       0.00178656 Ry

     iteration #  3     ecut=    21.00 Ry     beta= 0.70
     Davidson diagonalization with overlap
     ethr =  6.38E-06,  avg # of iterations =  2.6

     negative rho (up, down):  9.632E-06 0.000E+00

     total cpu time spent up to now is        0.6 secs

     total energy              =    -325.36418194 Ry
     estimated scf accuracy    <       0.00011302 Ry

     iteration #  4     ecut=    21.00 Ry     beta= 0.70
     Davidson diagonalization with overlap
     ethr =  4.04E-07,  avg # of iterations =  2.9

     negative rho (up, down):  9.295E-06 0.000E+00

     total cpu time spent up to now is        0.6 secs

     total energy              =    -325.36420726 Ry
     estimated scf accuracy    <       0.00000606 Ry

     iteration #  5     ecut=    21.00 Ry     beta= 0.70
     Davidson diagonalization with overlap
     ethr =  2.16E-08,  avg # of iterations =  3.5

     negative rho (up, down):  9.958E-06 0.000E+00

     total cpu time spent up to now is        0.6 secs

     total energy              =    -325.36420814 Ry
     estimated scf accuracy    <       0.00000086 Ry

     iteration #  6     ecut=    21.00 Ry     beta= 0.70
     Davidson diagonalization with overlap
     ethr =  3.07E-09,  avg # of iterations =  2.4

     negative rho (up, down):  9.737E-06 0.000E+00

     total cpu time spent up to now is        0.7 secs

     End of self-consistent calculation

          k = 0.0000 0.0000 0.0000 (   725 PWs)   bands (ev):

   -13.8318 -13.8318 -13.8318 -13.6657 -13.6657 -13.4823 -13.4823 -13.4823
   -13.3337 -13.3337  -2.6965   7.2918   8.0719   8.0719

          k =-0.2500 0.2500-0.2500 (   751 PWs)   bands (ev):

   -13.8931 -13.8931 -13.8346 -13.6808 -13.6808 -13.5252 -13.4980 -13.4980
   -13.4205 -13.4205  -2.1053   3.9125   7.3157   7.3157

          k = 0.5000-0.5000 0.5000 (   754 PWs)   bands (ev):

   -13.8784 -13.8784 -13.8396 -13.7095 -13.7095 -13.5202 -13.4871 -13.4871
   -13.4653 -13.4653  -1.0603   1.6342   6.8614   6.8614

          k = 0.0000 0.5000 0.0000 (   729 PWs)   bands (ev):

   -13.8608 -13.8608 -13.8028 -13.6386 -13.5917 -13.5681 -13.4403 -13.4403
   -13.4172 -13.3716  -1.8885   3.7945   6.3770   6.3770

          k = 0.7500-0.2500 0.7500 (   739 PWs)   bands (ev):

   -13.9163 -13.9110 -13.7810 -13.6205 -13.5982 -13.5864 -13.5046 -13.4753
   -13.4362 -13.3796  -0.7127   1.6708   5.0291   6.0610

          k = 0.5000 0.0000 0.5000 (   754 PWs)   bands (ev):

   -13.9335 -13.9135 -13.8187 -13.6551 -13.6502 -13.5989 -13.5347 -13.4847
   -13.4457 -13.3963  -1.1996   2.3615   4.9387   6.7929

          k = 0.0000-1.0000 0.0000 (   740 PWs)   bands (ev):

   -13.9248 -13.9248 -13.7621 -13.7621 -13.5462 -13.5462 -13.4746 -13.4746
   -13.4284 -13.4284   0.4172   0.4172   5.5082   5.5082

          k =-0.5000-1.0000 0.0000 (   744 PWs)   bands (ev):

   -13.9230 -13.9230 -13.7040 -13.7040 -13.5893 -13.5893 -13.5430 -13.5430
   -13.4108 -13.4108   0.4775   0.4775   4.9130   4.9130

     highest occupied level (ev):     8.0719

!    total energy              =    -325.36420830 Ry
     estimated scf accuracy    <       0.00000004 Ry

     The total energy is the sum of the following terms:
     one-electron contribution =    -150.41641912 Ry
     hartree contribution      =      92.81682657 Ry
     xc contribution           =     -95.10518535 Ry
     ewald contribution        =    -172.65943039 Ry

     convergence has been achieved in   6 iterations

     Writing all to output data dir ./alpha-sn-scf/alphatin.save/ :
     XML data file, charge density, pseudopotentials, collected wavefunctions

     init_run     :      0.22s CPU      0.26s WALL (       1 calls)
     electrons    :      0.08s CPU      0.12s WALL (       1 calls)

     Called by init_run:
     wfcinit      :      0.02s CPU      0.03s WALL (       1 calls)
     potinit      :      0.01s CPU      0.01s WALL (       1 calls)
     hinit0       :      0.16s CPU      0.18s WALL (       1 calls)

     Called by electrons:
     c_bands      :      0.03s CPU      0.05s WALL (       7 calls)
     sum_band     :      0.02s CPU      0.02s WALL (       7 calls)
     v_of_rho     :      0.01s CPU      0.02s WALL (       7 calls)
     newd         :      0.00s CPU      0.01s WALL (       7 calls)
     mix_rho      :      0.00s CPU      0.00s WALL (       7 calls)

     Called by c_bands:
     init_us_2    :      0.00s CPU      0.00s WALL (      15 calls)
     cegterg      :      0.03s CPU      0.04s WALL (       7 calls)

     Called by *egterg:
     cdiaghg      :      0.01s CPU      0.01s WALL (      27 calls)
     h_psi        :      0.04s CPU      0.05s WALL (      29 calls)
     s_psi        :      0.00s CPU      0.00s WALL (      29 calls)
     g_psi        :      0.00s CPU      0.00s WALL (      21 calls)

     Called by h_psi:
     h_psi:calbec :      0.00s CPU      0.00s WALL (      29 calls)
     vloc_psi     :      0.03s CPU      0.04s WALL (      29 calls)
     add_vuspsi   :      0.00s CPU      0.00s WALL (      29 calls)

     General routines
     calbec       :      0.00s CPU      0.00s WALL (      36 calls)
     fft          :      0.15s CPU      0.16s WALL (      78 calls)
     ffts         :      0.00s CPU      0.00s WALL (       7 calls)
     fftw         :      0.03s CPU      0.04s WALL (     610 calls)

     Parallel routines

     PWSCF        :      0.52s CPU      0.75s WALL


   This run was terminated on:  16: 4:14   5Feb2026            

=------------------------------------------------------------------------------=
   JOB DONE.
=------------------------------------------------------------------------------=
