
     Program PWSCF v.7.3.1 starts on  5Feb2026 at 16: 5:15 

     This program is part of the open-source Quantum ESPRESSO suite
     for quantum simulation of materials; please cite
         "P. Giannozzi et al., J. Phys.:Condens. Matter 21 395502 (2009);
         "P. Giannozzi et al., J. Phys.:Condens. Matter 29 465901 (2017);
         "P. Giannozzi et al., J. Chem. Phys. 152 154105 (2020);
          URL http://www.quantum-espresso.org", 
     in publications or presentations arising from this work. More details at
     http://www.quantum-espresso.org/quote

     Parallel version (MPI), running on   128 processors

     MPI processes distributed on     1 nodes
     241467 MiB available memory on the printing compute node when the environment starts

     Waiting for input...
     Reading input from standard input
     Message from routine read_cards :
     DEPRECATED: no units specified in ATOMIC_POSITIONS card
     Message from routine read_cards :
     ATOMIC_POSITIONS: units set to alat

     Current dimensions of program PWSCF are:
     Max number of different atomic species (ntypx) = 10
     Max number of k-points (npk) =  40000
     Max angular momentum in pseudopotentials (lmaxx) =  4

     K-points division:     npool     =       8
     R & G space division:  proc/nbgrp/npool/nimage =      16
     Subspace diagonalization in iterative solution of the eigenvalue problem:
     a serial algorithm will be used


     Parallelization info
     --------------------
     sticks:   dense  smooth     PW     G-vecs:    dense   smooth      PW
     Min          34      34     10                  539      539      90
     Max          35      35     11                  542      542      94
     Sum         559     559    163                 8657     8657    1459

     Using Slab Decomposition



     bravais-lattice index     =            2
     lattice parameter (alat)  =      12.2300  a.u.
     unit-cell volume          =     457.3191 (a.u.)^3
     number of atoms/cell      =            2
     number of atomic types    =            1
     number of electrons       =        28.00
     number of Kohn-Sham states=           14
     kinetic-energy cutoff     =      27.0000  Ry
     charge density cutoff     =     108.0000  Ry
     scf convergence threshold =      1.0E-07
     mixing beta               =       0.7000
     number of iterations used =            8  plain     mixing
     Exchange-correlation=  SLA  PW   GGX  GGC
                           (   1   4   2   2   0   0   0)

     celldm(1)=  12.230000  celldm(2)=   0.000000  celldm(3)=   0.000000
     celldm(4)=   0.000000  celldm(5)=   0.000000  celldm(6)=   0.000000

     crystal axes: (cart. coord. in units of alat)
               a(1) = (  -0.500000   0.000000   0.500000 )  
               a(2) = (   0.000000   0.500000   0.500000 )  
               a(3) = (  -0.500000   0.500000   0.000000 )  

     reciprocal axes: (cart. coord. in units 2 pi/alat)
               b(1) = ( -1.000000 -1.000000  1.000000 )  
               b(2) = (  1.000000  1.000000  1.000000 )  
               b(3) = ( -1.000000  1.000000 -1.000000 )  


     PseudoPot. # 1 for Sn read from file:
     ./Sn.pw91-n-van.UPF
     MD5 check sum: a38d2a872edd1a4efd76c0a1a38f7031
     Pseudo is Ultrasoft + core correction, Zval = 14.0
     Generated by new atomic code, or converted to UPF format
     Using radial grid of  891 points,  6 beta functions with: 
                l(1) =   0
                l(2) =   0
                l(3) =   1
                l(4) =   1
                l(5) =   2
                l(6) =   2
     Q(r) pseudized with  8 coefficients,  rinner =    1.100   1.100   1.100
                                                       1.100   1.100

     atomic species   valence    mass     pseudopotential
     Sn               14.00   118.70000     Sn( 1.00)

     48 Sym. Ops., with inversion, found (24 have fractional translation)



   Cartesian axes

     site n.     atom                  positions (alat units)
         1        Sn     tau(   1) = (   0.0000000   0.0000000   0.0000000  )
         2        Sn     tau(   2) = (   0.2500000   0.2500000   0.2500000  )

     number of k points=     8
                       cart. coord. in units 2pi/alat
        k(    1) = (   0.0000000   0.0000000   0.0000000), wk =   0.0312500
        k(    2) = (  -0.2500000   0.2500000  -0.2500000), wk =   0.2500000
        k(    3) = (   0.5000000  -0.5000000   0.5000000), wk =   0.1250000
        k(    4) = (   0.0000000   0.5000000   0.0000000), wk =   0.1875000
        k(    5) = (   0.7500000  -0.2500000   0.7500000), wk =   0.7500000
        k(    6) = (   0.5000000   0.0000000   0.5000000), wk =   0.3750000
        k(    7) = (   0.0000000  -1.0000000   0.0000000), wk =   0.0937500
        k(    8) = (  -0.5000000  -1.0000000   0.0000000), wk =   0.1875000

     Dense  grid:     8657 G-vectors     FFT dimensions: (  32,  32,  32)

     Estimated max dynamical RAM per process >       1.45 MB

     Estimated total dynamical RAM >     171.05 MB

     Initial potential from superposition of free atoms

     starting charge      27.9964, renormalised to      28.0000
     Starting wfcs are   18 randomized atomic wfcs

     total cpu time spent up to now is        0.5 secs

     per-process dynamical memory:     8.8 Mb

     Self-consistent Calculation

     iteration #  1     ecut=    27.00 Ry     beta= 0.70
     Davidson diagonalization with overlap
     ethr =  1.00E-02,  avg # of iterations =  1.5

     Threshold (ethr) on eigenvalues was too large:
     Diagonalizing with lowered threshold

     Davidson diagonalization with overlap
     ethr =  8.52E-05,  avg # of iterations =  2.1

     negative rho (up, down):  1.044E-04 0.000E+00

     total cpu time spent up to now is        0.6 secs

     total energy              =    -325.58424449 Ry
     estimated scf accuracy    <       0.02887576 Ry

     iteration #  2     ecut=    27.00 Ry     beta= 0.70
     Davidson diagonalization with overlap
     ethr =  1.03E-04,  avg # of iterations =  1.0

     negative rho (up, down):  2.409E-04 0.000E+00

     total cpu time spent up to now is        0.6 secs

     total energy              =    -325.58513507 Ry
     estimated scf accuracy    <       0.00164820 Ry

     iteration #  3     ecut=    27.00 Ry     beta= 0.70
     Davidson diagonalization with overlap
     ethr =  5.89E-06,  avg # of iterations =  2.1

     negative rho (up, down):  2.680E-04 0.000E+00

     total cpu time spent up to now is        0.6 secs

     total energy              =    -325.58526554 Ry
     estimated scf accuracy    <       0.00003747 Ry

     iteration #  4     ecut=    27.00 Ry     beta= 0.70
     Davidson diagonalization with overlap
     ethr =  1.34E-07,  avg # of iterations =  3.4

     negative rho (up, down):  2.847E-04 0.000E+00

     total cpu time spent up to now is        0.6 secs

     total energy              =    -325.58527900 Ry
     estimated scf accuracy    <       0.00000307 Ry

     iteration #  5     ecut=    27.00 Ry     beta= 0.70
     Davidson diagonalization with overlap
     ethr =  1.10E-08,  avg # of iterations =  3.2

     negative rho (up, down):  2.831E-04 0.000E+00

     total cpu time spent up to now is        0.7 secs

     total energy              =    -325.58527965 Ry
     estimated scf accuracy    <       0.00000030 Ry

     iteration #  6     ecut=    27.00 Ry     beta= 0.70
     Davidson diagonalization with overlap
     ethr =  1.06E-09,  avg # of iterations =  2.8

     negative rho (up, down):  2.840E-04 0.000E+00

     total cpu time spent up to now is        0.7 secs

     End of self-consistent calculation

          k = 0.0000 0.0000 0.0000 (  1067 PWs)   bands (ev):

   -13.6889 -13.6889 -13.6889 -13.6315 -13.6315 -13.3146 -13.3146 -13.3146
   -13.3019 -13.3019  -2.7022   7.3285   8.0648   8.0648

          k =-0.2500 0.2500-0.2500 (  1083 PWs)   bands (ev):

   -13.7166 -13.7166 -13.6772 -13.5899 -13.5899 -13.3589 -13.3589 -13.3309
   -13.2677 -13.2677  -2.1102   3.9164   7.3016   7.3016

          k = 0.5000-0.5000 0.5000 (  1068 PWs)   bands (ev):

   -13.7273 -13.7273 -13.6632 -13.5677 -13.5677 -13.3747 -13.3747 -13.3477
   -13.2553 -13.2553  -1.0641   1.6338   6.8442   6.8442

          k = 0.0000 0.5000 0.0000 (  1094 PWs)   bands (ev):

   -13.7192 -13.7192 -13.6945 -13.5827 -13.5327 -13.4465 -13.3509 -13.2834
   -13.2728 -13.2728  -1.8932   3.8015   6.3574   6.3574

          k = 0.7500-0.2500 0.7500 (  1088 PWs)   bands (ev):

   -13.7576 -13.7371 -13.6307 -13.5315 -13.5022 -13.4740 -13.4063 -13.3572
   -13.2443 -13.2232  -0.7161   1.6712   5.0210   6.0401

          k = 0.5000 0.0000 0.5000 (  1081 PWs)   bands (ev):

   -13.7505 -13.7391 -13.6244 -13.5658 -13.5280 -13.4206 -13.3894 -13.3734
   -13.2404 -13.2331  -1.2034   2.3634   4.9316   6.7756

          k = 0.0000-1.0000 0.0000 (  1106 PWs)   bands (ev):

   -13.7437 -13.7437 -13.6066 -13.6066 -13.4657 -13.4657 -13.3810 -13.3810
   -13.2359 -13.2359   0.4159   0.4159   5.4856   5.4856

          k =-0.5000-1.0000 0.0000 (  1084 PWs)   bands (ev):

   -13.7610 -13.7610 -13.5468 -13.5468 -13.4747 -13.4747 -13.4300 -13.4300
   -13.2173 -13.2173   0.4761   0.4761   4.9018   4.9018

     highest occupied level (ev):     8.0648

!    total energy              =    -325.58527969 Ry
     estimated scf accuracy    <       0.00000008 Ry

     The total energy is the sum of the following terms:
     one-electron contribution =    -150.93370696 Ry
     hartree contribution      =      93.24211241 Ry
     xc contribution           =     -95.23425477 Ry
     ewald contribution        =    -172.65943037 Ry

     convergence has been achieved in   6 iterations

     Writing all to output data dir ./alpha-sn-scf/alphatin.save/ :
     XML data file, charge density, pseudopotentials, collected wavefunctions

     init_run     :      0.20s CPU      0.26s WALL (       1 calls)
     electrons    :      0.08s CPU      0.13s WALL (       1 calls)

     Called by init_run:
     wfcinit      :      0.03s CPU      0.03s WALL (       1 calls)
     potinit      :      0.01s CPU      0.01s WALL (       1 calls)
     hinit0       :      0.16s CPU      0.18s WALL (       1 calls)

     Called by electrons:
     c_bands      :      0.04s CPU      0.05s WALL (       7 calls)
     sum_band     :      0.01s CPU      0.03s WALL (       7 calls)
     v_of_rho     :      0.01s CPU      0.02s WALL (       7 calls)
     newd         :      0.01s CPU      0.01s WALL (       7 calls)
     mix_rho      :      0.00s CPU      0.00s WALL (       7 calls)

     Called by c_bands:
     init_us_2    :      0.00s CPU      0.00s WALL (      15 calls)
     cegterg      :      0.03s CPU      0.04s WALL (       7 calls)

     Called by *egterg:
     cdiaghg      :      0.01s CPU      0.01s WALL (      26 calls)
     h_psi        :      0.04s CPU      0.05s WALL (      28 calls)
     s_psi        :      0.00s CPU      0.00s WALL (      28 calls)
     g_psi        :      0.00s CPU      0.00s WALL (      20 calls)

     Called by h_psi:
     h_psi:calbec :      0.00s CPU      0.00s WALL (      28 calls)
     vloc_psi     :      0.03s CPU      0.04s WALL (      28 calls)
     add_vuspsi   :      0.00s CPU      0.00s WALL (      28 calls)

     General routines
     calbec       :      0.00s CPU      0.00s WALL (      35 calls)
     fft          :      0.15s CPU      0.15s WALL (      78 calls)
     ffts         :      0.00s CPU      0.00s WALL (       7 calls)
     fftw         :      0.03s CPU      0.04s WALL (     622 calls)

     Parallel routines

     PWSCF        :      0.48s CPU      0.77s WALL


   This run was terminated on:  16: 5:16   5Feb2026            

=------------------------------------------------------------------------------=
   JOB DONE.
=------------------------------------------------------------------------------=
