
     Program PWSCF v.7.3.1 starts on  5Feb2026 at 16:30: 2 

     This program is part of the open-source Quantum ESPRESSO suite
     for quantum simulation of materials; please cite
         "P. Giannozzi et al., J. Phys.:Condens. Matter 21 395502 (2009);
         "P. Giannozzi et al., J. Phys.:Condens. Matter 29 465901 (2017);
         "P. Giannozzi et al., J. Chem. Phys. 152 154105 (2020);
          URL http://www.quantum-espresso.org", 
     in publications or presentations arising from this work. More details at
     http://www.quantum-espresso.org/quote

     Parallel version (MPI), running on   128 processors

     MPI processes distributed on     1 nodes
     241321 MiB available memory on the printing compute node when the environment starts

     Waiting for input...
     Reading input from standard input
     Message from routine read_cards :
     DEPRECATED: no units specified in ATOMIC_POSITIONS card
     Message from routine read_cards :
     ATOMIC_POSITIONS: units set to alat

     Current dimensions of program PWSCF are:
     Max number of different atomic species (ntypx) = 10
     Max number of k-points (npk) =  40000
     Max angular momentum in pseudopotentials (lmaxx) =  4

     K-points division:     npool     =       4
     R & G space division:  proc/nbgrp/npool/nimage =      32
     Subspace diagonalization in iterative solution of the eigenvalue problem:
     a serial algorithm will be used


     Parallelization info
     --------------------
     sticks:   dense  smooth     PW     G-vecs:    dense   smooth      PW
     Min         107     107     29                 4159     4159     590
     Max         108     108     30                 4163     4163     592
     Sum        3439    3439    931               133115   133115   18907

     Using Slab Decomposition



     bravais-lattice index     =            2
     lattice parameter (alat)  =      12.2300  a.u.
     unit-cell volume          =     457.3191 (a.u.)^3
     number of atoms/cell      =            2
     number of atomic types    =            1
     number of electrons       =        28.00
     number of Kohn-Sham states=           14
     kinetic-energy cutoff     =     167.0000  Ry
     charge density cutoff     =     668.0000  Ry
     scf convergence threshold =      1.0E-07
     mixing beta               =       0.7000
     number of iterations used =            8  plain     mixing
     Exchange-correlation=  SLA  PW   GGX  GGC
                           (   1   4   2   2   0   0   0)

     celldm(1)=  12.230000  celldm(2)=   0.000000  celldm(3)=   0.000000
     celldm(4)=   0.000000  celldm(5)=   0.000000  celldm(6)=   0.000000

     crystal axes: (cart. coord. in units of alat)
               a(1) = (  -0.500000   0.000000   0.500000 )  
               a(2) = (   0.000000   0.500000   0.500000 )  
               a(3) = (  -0.500000   0.500000   0.000000 )  

     reciprocal axes: (cart. coord. in units 2 pi/alat)
               b(1) = ( -1.000000 -1.000000  1.000000 )  
               b(2) = (  1.000000  1.000000  1.000000 )  
               b(3) = ( -1.000000  1.000000 -1.000000 )  


     PseudoPot. # 1 for Sn read from file:
     ./Sn.pw91-n-van.UPF
     MD5 check sum: a38d2a872edd1a4efd76c0a1a38f7031
     Pseudo is Ultrasoft + core correction, Zval = 14.0
     Generated by new atomic code, or converted to UPF format
     Using radial grid of  891 points,  6 beta functions with: 
                l(1) =   0
                l(2) =   0
                l(3) =   1
                l(4) =   1
                l(5) =   2
                l(6) =   2
     Q(r) pseudized with  8 coefficients,  rinner =    1.100   1.100   1.100
                                                       1.100   1.100

     atomic species   valence    mass     pseudopotential
     Sn               14.00   118.70000     Sn( 1.00)

     48 Sym. Ops., with inversion, found (24 have fractional translation)



   Cartesian axes

     site n.     atom                  positions (alat units)
         1        Sn     tau(   1) = (   0.0000000   0.0000000   0.0000000  )
         2        Sn     tau(   2) = (   0.2500000   0.2500000   0.2500000  )

     number of k points=     8
                       cart. coord. in units 2pi/alat
        k(    1) = (   0.0000000   0.0000000   0.0000000), wk =   0.0312500
        k(    2) = (  -0.2500000   0.2500000  -0.2500000), wk =   0.2500000
        k(    3) = (   0.5000000  -0.5000000   0.5000000), wk =   0.1250000
        k(    4) = (   0.0000000   0.5000000   0.0000000), wk =   0.1875000
        k(    5) = (   0.7500000  -0.2500000   0.7500000), wk =   0.7500000
        k(    6) = (   0.5000000   0.0000000   0.5000000), wk =   0.3750000
        k(    7) = (   0.0000000  -1.0000000   0.0000000), wk =   0.0937500
        k(    8) = (  -0.5000000  -1.0000000   0.0000000), wk =   0.1875000

     Dense  grid:   133115 G-vectors     FFT dimensions: (  72,  72,  72)

     Estimated max dynamical RAM per process >       8.52 MB

     Estimated total dynamical RAM >     993.15 MB

     Initial potential from superposition of free atoms

     starting charge      27.9964, renormalised to      28.0000
     Starting wfcs are   18 randomized atomic wfcs

     total cpu time spent up to now is        1.1 secs

     per-process dynamical memory:    14.7 Mb

     Self-consistent Calculation

     iteration #  1     ecut=   167.00 Ry     beta= 0.70
     Davidson diagonalization with overlap
     ethr =  1.00E-02,  avg # of iterations =  2.0

     Threshold (ethr) on eigenvalues was too large:
     Diagonalizing with lowered threshold

     Davidson diagonalization with overlap
     ethr =  8.97E-05,  avg # of iterations =  2.0

     total cpu time spent up to now is        1.3 secs

     total energy              =    -325.62359319 Ry
     estimated scf accuracy    <       0.02943182 Ry

     iteration #  2     ecut=   167.00 Ry     beta= 0.70
     Davidson diagonalization with overlap
     ethr =  1.05E-04,  avg # of iterations =  1.5

     negative rho (up, down):  9.146E-07 0.000E+00

     total cpu time spent up to now is        1.3 secs

     total energy              =    -325.62752373 Ry
     estimated scf accuracy    <       0.00157537 Ry

     iteration #  3     ecut=   167.00 Ry     beta= 0.70
     Davidson diagonalization with overlap
     ethr =  5.63E-06,  avg # of iterations =  2.4

     negative rho (up, down):  3.511E-06 0.000E+00

     total cpu time spent up to now is        1.4 secs

     total energy              =    -325.62775552 Ry
     estimated scf accuracy    <       0.00005527 Ry

     iteration #  4     ecut=   167.00 Ry     beta= 0.70
     Davidson diagonalization with overlap
     ethr =  1.97E-07,  avg # of iterations =  3.1

     negative rho (up, down):  5.055E-06 0.000E+00

     total cpu time spent up to now is        1.5 secs

     total energy              =    -325.62777668 Ry
     estimated scf accuracy    <       0.00000428 Ry

     iteration #  5     ecut=   167.00 Ry     beta= 0.70
     Davidson diagonalization with overlap
     ethr =  1.53E-08,  avg # of iterations =  3.5

     negative rho (up, down):  4.956E-06 0.000E+00

     total cpu time spent up to now is        1.6 secs

     total energy              =    -325.62777718 Ry
     estimated scf accuracy    <       0.00000069 Ry

     iteration #  6     ecut=   167.00 Ry     beta= 0.70
     Davidson diagonalization with overlap
     ethr =  2.45E-09,  avg # of iterations =  2.1

     negative rho (up, down):  4.946E-06 0.000E+00

     total cpu time spent up to now is        1.7 secs

     End of self-consistent calculation

          k = 0.0000 0.0000 0.0000 ( 16625 PWs)   bands (ev):

   -13.7134 -13.7134 -13.7134 -13.6543 -13.6543 -13.3369 -13.3369 -13.3369
   -13.3282 -13.3282  -2.7012   7.3357   8.0626   8.0626

          k =-0.2500 0.2500-0.2500 ( 16664 PWs)   bands (ev):

   -13.7397 -13.7397 -13.7003 -13.6135 -13.6135 -13.3826 -13.3826 -13.3538
   -13.2911 -13.2911  -2.1092   3.9176   7.2996   7.2996

          k = 0.5000-0.5000 0.5000 ( 16620 PWs)   bands (ev):

   -13.7504 -13.7504 -13.6863 -13.5923 -13.5923 -13.3988 -13.3988 -13.3715
   -13.2794 -13.2794  -1.0628   1.6343   6.8424   6.8424

          k = 0.0000 0.5000 0.0000 ( 16689 PWs)   bands (ev):

   -13.7416 -13.7416 -13.7175 -13.6057 -13.5559 -13.4695 -13.3751 -13.3069
   -13.2958 -13.2958  -1.8922   3.8036   6.3555   6.3555

          k = 0.7500-0.2500 0.7500 ( 16666 PWs)   bands (ev):

   -13.7804 -13.7598 -13.6536 -13.5549 -13.5257 -13.4975 -13.4299 -13.3813
   -13.2674 -13.2463  -0.7148   1.6725   5.0189   6.0384

          k = 0.5000 0.0000 0.5000 ( 16674 PWs)   bands (ev):

   -13.7738 -13.7618 -13.6476 -13.5894 -13.5517 -13.4439 -13.4128 -13.3986
   -13.2636 -13.2566  -1.2022   2.3649   4.9294   6.7737

          k = 0.0000-1.0000 0.0000 ( 16670 PWs)   bands (ev):

   -13.7658 -13.7658 -13.6293 -13.6293 -13.4894 -13.4894 -13.4041 -13.4041
   -13.2584 -13.2584   0.4173   0.4173   5.4839   5.4839

          k =-0.5000-1.0000 0.0000 ( 16660 PWs)   bands (ev):

   -13.7838 -13.7838 -13.5704 -13.5704 -13.4987 -13.4987 -13.4533 -13.4533
   -13.2408 -13.2408   0.4776   0.4776   4.8995   4.8995

     highest occupied level (ev):     8.0626

!    total energy              =    -325.62777724 Ry
     estimated scf accuracy    <       0.00000002 Ry

     The total energy is the sum of the following terms:
     one-electron contribution =    -150.99145778 Ry
     hartree contribution      =      93.25681084 Ry
     xc contribution           =     -95.23369993 Ry
     ewald contribution        =    -172.65943036 Ry

     convergence has been achieved in   6 iterations

     Writing all to output data dir ./alpha-sn-scf/alphatin.save/ :
     XML data file, charge density, pseudopotentials, collected wavefunctions

     init_run     :      0.71s CPU      0.78s WALL (       1 calls)
     electrons    :      0.60s CPU      0.68s WALL (       1 calls)

     Called by init_run:
     wfcinit      :      0.03s CPU      0.04s WALL (       1 calls)
     potinit      :      0.02s CPU      0.03s WALL (       1 calls)
     hinit0       :      0.58s CPU      0.60s WALL (       1 calls)

     Called by electrons:
     c_bands      :      0.31s CPU      0.34s WALL (       7 calls)
     sum_band     :      0.13s CPU      0.14s WALL (       7 calls)
     v_of_rho     :      0.09s CPU      0.10s WALL (       7 calls)
     newd         :      0.04s CPU      0.05s WALL (       7 calls)
     mix_rho      :      0.01s CPU      0.01s WALL (       7 calls)

     Called by c_bands:
     init_us_2    :      0.01s CPU      0.01s WALL (      30 calls)
     cegterg      :      0.29s CPU      0.31s WALL (      14 calls)

     Called by *egterg:
     cdiaghg      :      0.01s CPU      0.02s WALL (      50 calls)
     h_psi        :      0.27s CPU      0.29s WALL (      54 calls)
     s_psi        :      0.00s CPU      0.01s WALL (      54 calls)
     g_psi        :      0.00s CPU      0.00s WALL (      38 calls)

     Called by h_psi:
     h_psi:calbec :      0.01s CPU      0.01s WALL (      54 calls)
     vloc_psi     :      0.25s CPU      0.27s WALL (      54 calls)
     add_vuspsi   :      0.01s CPU      0.01s WALL (      54 calls)

     General routines
     calbec       :      0.01s CPU      0.01s WALL (      68 calls)
     fft          :      0.58s CPU      0.59s WALL (      78 calls)
     ffts         :      0.00s CPU      0.00s WALL (       7 calls)
     fftw         :      0.27s CPU      0.29s WALL (    1194 calls)

     Parallel routines

     PWSCF        :      1.55s CPU      1.87s WALL


   This run was terminated on:  16:30: 4   5Feb2026            

=------------------------------------------------------------------------------=
   JOB DONE.
=------------------------------------------------------------------------------=
