
     Program PWSCF v.7.3.1 starts on  5Feb2026 at 16: 9:24 

     This program is part of the open-source Quantum ESPRESSO suite
     for quantum simulation of materials; please cite
         "P. Giannozzi et al., J. Phys.:Condens. Matter 21 395502 (2009);
         "P. Giannozzi et al., J. Phys.:Condens. Matter 29 465901 (2017);
         "P. Giannozzi et al., J. Chem. Phys. 152 154105 (2020);
          URL http://www.quantum-espresso.org", 
     in publications or presentations arising from this work. More details at
     http://www.quantum-espresso.org/quote

     Parallel version (MPI), running on   128 processors

     MPI processes distributed on     1 nodes
     241389 MiB available memory on the printing compute node when the environment starts

     Waiting for input...
     Reading input from standard input
     Message from routine read_cards :
     DEPRECATED: no units specified in ATOMIC_POSITIONS card
     Message from routine read_cards :
     ATOMIC_POSITIONS: units set to alat

     Current dimensions of program PWSCF are:
     Max number of different atomic species (ntypx) = 10
     Max number of k-points (npk) =  40000
     Max angular momentum in pseudopotentials (lmaxx) =  4

     K-points division:     npool     =       8
     R & G space division:  proc/nbgrp/npool/nimage =      16
     Subspace diagonalization in iterative solution of the eigenvalue problem:
     a serial algorithm will be used


     Parallelization info
     --------------------
     sticks:   dense  smooth     PW     G-vecs:    dense   smooth      PW
     Min          68      68     19                 1489     1489     231
     Max          69      69     20                 1490     1490     234
     Sum        1099    1099    313                23829    23829    3719

     Using Slab Decomposition



     bravais-lattice index     =            2
     lattice parameter (alat)  =      12.2300  a.u.
     unit-cell volume          =     457.3191 (a.u.)^3
     number of atoms/cell      =            2
     number of atomic types    =            1
     number of electrons       =        28.00
     number of Kohn-Sham states=           14
     kinetic-energy cutoff     =      53.0000  Ry
     charge density cutoff     =     212.0000  Ry
     scf convergence threshold =      1.0E-07
     mixing beta               =       0.7000
     number of iterations used =            8  plain     mixing
     Exchange-correlation=  SLA  PW   GGX  GGC
                           (   1   4   2   2   0   0   0)

     celldm(1)=  12.230000  celldm(2)=   0.000000  celldm(3)=   0.000000
     celldm(4)=   0.000000  celldm(5)=   0.000000  celldm(6)=   0.000000

     crystal axes: (cart. coord. in units of alat)
               a(1) = (  -0.500000   0.000000   0.500000 )  
               a(2) = (   0.000000   0.500000   0.500000 )  
               a(3) = (  -0.500000   0.500000   0.000000 )  

     reciprocal axes: (cart. coord. in units 2 pi/alat)
               b(1) = ( -1.000000 -1.000000  1.000000 )  
               b(2) = (  1.000000  1.000000  1.000000 )  
               b(3) = ( -1.000000  1.000000 -1.000000 )  


     PseudoPot. # 1 for Sn read from file:
     ./Sn.pw91-n-van.UPF
     MD5 check sum: a38d2a872edd1a4efd76c0a1a38f7031
     Pseudo is Ultrasoft + core correction, Zval = 14.0
     Generated by new atomic code, or converted to UPF format
     Using radial grid of  891 points,  6 beta functions with: 
                l(1) =   0
                l(2) =   0
                l(3) =   1
                l(4) =   1
                l(5) =   2
                l(6) =   2
     Q(r) pseudized with  8 coefficients,  rinner =    1.100   1.100   1.100
                                                       1.100   1.100

     atomic species   valence    mass     pseudopotential
     Sn               14.00   118.70000     Sn( 1.00)

     48 Sym. Ops., with inversion, found (24 have fractional translation)



   Cartesian axes

     site n.     atom                  positions (alat units)
         1        Sn     tau(   1) = (   0.0000000   0.0000000   0.0000000  )
         2        Sn     tau(   2) = (   0.2500000   0.2500000   0.2500000  )

     number of k points=     8
                       cart. coord. in units 2pi/alat
        k(    1) = (   0.0000000   0.0000000   0.0000000), wk =   0.0312500
        k(    2) = (  -0.2500000   0.2500000  -0.2500000), wk =   0.2500000
        k(    3) = (   0.5000000  -0.5000000   0.5000000), wk =   0.1250000
        k(    4) = (   0.0000000   0.5000000   0.0000000), wk =   0.1875000
        k(    5) = (   0.7500000  -0.2500000   0.7500000), wk =   0.7500000
        k(    6) = (   0.5000000   0.0000000   0.5000000), wk =   0.3750000
        k(    7) = (   0.0000000  -1.0000000   0.0000000), wk =   0.0937500
        k(    8) = (  -0.5000000  -1.0000000   0.0000000), wk =   0.1875000

     Dense  grid:    23829 G-vectors     FFT dimensions: (  48,  48,  48)

     Estimated max dynamical RAM per process >       2.96 MB

     Estimated total dynamical RAM >     338.02 MB

     Initial potential from superposition of free atoms

     starting charge      27.9964, renormalised to      28.0000
     Starting wfcs are   18 randomized atomic wfcs

     total cpu time spent up to now is        0.8 secs

     per-process dynamical memory:    10.7 Mb

     Self-consistent Calculation

     iteration #  1     ecut=    53.00 Ry     beta= 0.70
     Davidson diagonalization with overlap
     ethr =  1.00E-02,  avg # of iterations =  1.5

     Threshold (ethr) on eigenvalues was too large:
     Diagonalizing with lowered threshold

     Davidson diagonalization with overlap
     ethr =  8.31E-05,  avg # of iterations =  2.1

     negative rho (up, down):  2.850E-05 0.000E+00

     total cpu time spent up to now is        0.8 secs

     total energy              =    -325.60475445 Ry
     estimated scf accuracy    <       0.02873408 Ry

     iteration #  2     ecut=    53.00 Ry     beta= 0.70
     Davidson diagonalization with overlap
     ethr =  1.03E-04,  avg # of iterations =  1.0

     negative rho (up, down):  6.775E-05 0.000E+00

     total cpu time spent up to now is        0.9 secs

     total energy              =    -325.60573368 Ry
     estimated scf accuracy    <       0.00163709 Ry

     iteration #  3     ecut=    53.00 Ry     beta= 0.70
     Davidson diagonalization with overlap
     ethr =  5.85E-06,  avg # of iterations =  2.1

     negative rho (up, down):  7.605E-05 0.000E+00

     total cpu time spent up to now is        0.9 secs

     total energy              =    -325.60586838 Ry
     estimated scf accuracy    <       0.00003921 Ry

     iteration #  4     ecut=    53.00 Ry     beta= 0.70
     Davidson diagonalization with overlap
     ethr =  1.40E-07,  avg # of iterations =  3.2

     negative rho (up, down):  8.120E-05 0.000E+00

     total cpu time spent up to now is        0.9 secs

     total energy              =    -325.60587986 Ry
     estimated scf accuracy    <       0.00000329 Ry

     iteration #  5     ecut=    53.00 Ry     beta= 0.70
     Davidson diagonalization with overlap
     ethr =  1.18E-08,  avg # of iterations =  3.8

     negative rho (up, down):  8.073E-05 0.000E+00

     total cpu time spent up to now is        0.9 secs

     total energy              =    -325.60588048 Ry
     estimated scf accuracy    <       0.00000031 Ry

     iteration #  6     ecut=    53.00 Ry     beta= 0.70
     Davidson diagonalization with overlap
     ethr =  1.11E-09,  avg # of iterations =  2.6

     negative rho (up, down):  8.098E-05 0.000E+00

     total cpu time spent up to now is        1.0 secs

     End of self-consistent calculation

          k = 0.0000 0.0000 0.0000 (  2975 PWs)   bands (ev):

   -13.6988 -13.6988 -13.6988 -13.6403 -13.6403 -13.3215 -13.3215 -13.3215
   -13.3141 -13.3141  -2.6984   7.3364   8.0655   8.0655

          k =-0.2500 0.2500-0.2500 (  2959 PWs)   bands (ev):

   -13.7250 -13.7250 -13.6854 -13.5995 -13.5995 -13.3681 -13.3681 -13.3384
   -13.2758 -13.2758  -2.1065   3.9201   7.3023   7.3023

          k = 0.5000-0.5000 0.5000 (  2998 PWs)   bands (ev):

   -13.7359 -13.7359 -13.6713 -13.5783 -13.5783 -13.3847 -13.3847 -13.3565
   -13.2641 -13.2641  -1.0606   1.6376   6.8450   6.8450

          k = 0.0000 0.5000 0.0000 (  2978 PWs)   bands (ev):

   -13.7268 -13.7268 -13.7029 -13.5917 -13.5416 -13.4547 -13.3611 -13.2920
   -13.2804 -13.2804  -1.8896   3.8053   6.3584   6.3584

          k = 0.7500-0.2500 0.7500 (  2988 PWs)   bands (ev):

   -13.7658 -13.7451 -13.6390 -13.5409 -13.5114 -13.4830 -13.4157 -13.3664
   -13.2522 -13.2310  -0.7126   1.6747   5.0236   6.0412

          k = 0.5000 0.0000 0.5000 (  2980 PWs)   bands (ev):

   -13.7590 -13.7473 -13.6325 -13.5753 -13.5375 -13.4296 -13.3977 -13.3842
   -13.2483 -13.2413  -1.1998   2.3670   4.9344   6.7764

          k = 0.0000-1.0000 0.0000 (  2954 PWs)   bands (ev):

   -13.7510 -13.7510 -13.6145 -13.6145 -13.4753 -13.4753 -13.3892 -13.3892
   -13.2429 -13.2429   0.4194   0.4194   5.4868   5.4868

          k =-0.5000-1.0000 0.0000 (  2996 PWs)   bands (ev):

   -13.7692 -13.7692 -13.5559 -13.5559 -13.4845 -13.4845 -13.4389 -13.4389
   -13.2255 -13.2255   0.4795   0.4795   4.9043   4.9043

     highest occupied level (ev):     8.0655

!    total energy              =    -325.60588053 Ry
     estimated scf accuracy    <       0.00000007 Ry

     The total energy is the sum of the following terms:
     one-electron contribution =    -150.96592541 Ry
     hartree contribution      =      93.25254427 Ry
     xc contribution           =     -95.23306901 Ry
     ewald contribution        =    -172.65943038 Ry

     convergence has been achieved in   6 iterations

     Writing all to output data dir ./alpha-sn-scf/alphatin.save/ :
     XML data file, charge density, pseudopotentials, collected wavefunctions

     init_run     :      0.45s CPU      0.48s WALL (       1 calls)
     electrons    :      0.17s CPU      0.21s WALL (       1 calls)

     Called by init_run:
     wfcinit      :      0.02s CPU      0.02s WALL (       1 calls)
     potinit      :      0.01s CPU      0.02s WALL (       1 calls)
     hinit0       :      0.38s CPU      0.39s WALL (       1 calls)

     Called by electrons:
     c_bands      :      0.07s CPU      0.08s WALL (       7 calls)
     sum_band     :      0.03s CPU      0.04s WALL (       7 calls)
     v_of_rho     :      0.04s CPU      0.04s WALL (       7 calls)
     newd         :      0.02s CPU      0.03s WALL (       7 calls)
     mix_rho      :      0.00s CPU      0.00s WALL (       7 calls)

     Called by c_bands:
     init_us_2    :      0.00s CPU      0.00s WALL (      15 calls)
     cegterg      :      0.06s CPU      0.07s WALL (       7 calls)

     Called by *egterg:
     cdiaghg      :      0.01s CPU      0.01s WALL (      27 calls)
     h_psi        :      0.06s CPU      0.07s WALL (      29 calls)
     s_psi        :      0.00s CPU      0.00s WALL (      29 calls)
     g_psi        :      0.00s CPU      0.00s WALL (      21 calls)

     Called by h_psi:
     h_psi:calbec :      0.00s CPU      0.00s WALL (      29 calls)
     vloc_psi     :      0.05s CPU      0.06s WALL (      29 calls)
     add_vuspsi   :      0.00s CPU      0.00s WALL (      29 calls)

     General routines
     calbec       :      0.01s CPU      0.01s WALL (      36 calls)
     fft          :      0.36s CPU      0.37s WALL (      78 calls)
     ffts         :      0.00s CPU      0.00s WALL (       7 calls)
     fftw         :      0.05s CPU      0.06s WALL (     616 calls)

     Parallel routines

     PWSCF        :      0.82s CPU      1.09s WALL


   This run was terminated on:  16: 9:25   5Feb2026            

=------------------------------------------------------------------------------=
   JOB DONE.
=------------------------------------------------------------------------------=
