
     Program PWSCF v.7.3.1 starts on  5Feb2026 at 16: 6:47 

     This program is part of the open-source Quantum ESPRESSO suite
     for quantum simulation of materials; please cite
         "P. Giannozzi et al., J. Phys.:Condens. Matter 21 395502 (2009);
         "P. Giannozzi et al., J. Phys.:Condens. Matter 29 465901 (2017);
         "P. Giannozzi et al., J. Chem. Phys. 152 154105 (2020);
          URL http://www.quantum-espresso.org", 
     in publications or presentations arising from this work. More details at
     http://www.quantum-espresso.org/quote

     Parallel version (MPI), running on   128 processors

     MPI processes distributed on     1 nodes
     241322 MiB available memory on the printing compute node when the environment starts

     Waiting for input...
     Reading input from standard input
     Message from routine read_cards :
     DEPRECATED: no units specified in ATOMIC_POSITIONS card
     Message from routine read_cards :
     ATOMIC_POSITIONS: units set to alat

     Current dimensions of program PWSCF are:
     Max number of different atomic species (ntypx) = 10
     Max number of k-points (npk) =  40000
     Max angular momentum in pseudopotentials (lmaxx) =  4

     K-points division:     npool     =       8
     R & G space division:  proc/nbgrp/npool/nimage =      16
     Subspace diagonalization in iterative solution of the eigenvalue problem:
     a serial algorithm will be used


     Parallelization info
     --------------------
     sticks:   dense  smooth     PW     G-vecs:    dense   smooth      PW
     Min          47      47     13                  864      864     137
     Max          48      48     14                  867      867     142
     Sum         757     757    223                13851    13851    2229

     Using Slab Decomposition



     bravais-lattice index     =            2
     lattice parameter (alat)  =      12.2300  a.u.
     unit-cell volume          =     457.3191 (a.u.)^3
     number of atoms/cell      =            2
     number of atomic types    =            1
     number of electrons       =        28.00
     number of Kohn-Sham states=           14
     kinetic-energy cutoff     =      37.0000  Ry
     charge density cutoff     =     148.0000  Ry
     scf convergence threshold =      1.0E-07
     mixing beta               =       0.7000
     number of iterations used =            8  plain     mixing
     Exchange-correlation=  SLA  PW   GGX  GGC
                           (   1   4   2   2   0   0   0)

     celldm(1)=  12.230000  celldm(2)=   0.000000  celldm(3)=   0.000000
     celldm(4)=   0.000000  celldm(5)=   0.000000  celldm(6)=   0.000000

     crystal axes: (cart. coord. in units of alat)
               a(1) = (  -0.500000   0.000000   0.500000 )  
               a(2) = (   0.000000   0.500000   0.500000 )  
               a(3) = (  -0.500000   0.500000   0.000000 )  

     reciprocal axes: (cart. coord. in units 2 pi/alat)
               b(1) = ( -1.000000 -1.000000  1.000000 )  
               b(2) = (  1.000000  1.000000  1.000000 )  
               b(3) = ( -1.000000  1.000000 -1.000000 )  


     PseudoPot. # 1 for Sn read from file:
     ./Sn.pw91-n-van.UPF
     MD5 check sum: a38d2a872edd1a4efd76c0a1a38f7031
     Pseudo is Ultrasoft + core correction, Zval = 14.0
     Generated by new atomic code, or converted to UPF format
     Using radial grid of  891 points,  6 beta functions with: 
                l(1) =   0
                l(2) =   0
                l(3) =   1
                l(4) =   1
                l(5) =   2
                l(6) =   2
     Q(r) pseudized with  8 coefficients,  rinner =    1.100   1.100   1.100
                                                       1.100   1.100

     atomic species   valence    mass     pseudopotential
     Sn               14.00   118.70000     Sn( 1.00)

     48 Sym. Ops., with inversion, found (24 have fractional translation)



   Cartesian axes

     site n.     atom                  positions (alat units)
         1        Sn     tau(   1) = (   0.0000000   0.0000000   0.0000000  )
         2        Sn     tau(   2) = (   0.2500000   0.2500000   0.2500000  )

     number of k points=     8
                       cart. coord. in units 2pi/alat
        k(    1) = (   0.0000000   0.0000000   0.0000000), wk =   0.0312500
        k(    2) = (  -0.2500000   0.2500000  -0.2500000), wk =   0.2500000
        k(    3) = (   0.5000000  -0.5000000   0.5000000), wk =   0.1250000
        k(    4) = (   0.0000000   0.5000000   0.0000000), wk =   0.1875000
        k(    5) = (   0.7500000  -0.2500000   0.7500000), wk =   0.7500000
        k(    6) = (   0.5000000   0.0000000   0.5000000), wk =   0.3750000
        k(    7) = (   0.0000000  -1.0000000   0.0000000), wk =   0.0937500
        k(    8) = (  -0.5000000  -1.0000000   0.0000000), wk =   0.1875000

     Dense  grid:    13851 G-vectors     FFT dimensions: (  36,  36,  36)

     Estimated max dynamical RAM per process >       2.01 MB

     Estimated total dynamical RAM >     233.36 MB

     Initial potential from superposition of free atoms

     starting charge      27.9964, renormalised to      28.0000
     Starting wfcs are   18 randomized atomic wfcs

     total cpu time spent up to now is        0.7 secs

     per-process dynamical memory:     9.7 Mb

     Self-consistent Calculation

     iteration #  1     ecut=    37.00 Ry     beta= 0.70
     Davidson diagonalization with overlap
     ethr =  1.00E-02,  avg # of iterations =  1.4

     Threshold (ethr) on eigenvalues was too large:
     Diagonalizing with lowered threshold

     Davidson diagonalization with overlap
     ethr =  8.38E-05,  avg # of iterations =  2.1

     total cpu time spent up to now is        0.8 secs

     total energy              =    -325.59615476 Ry
     estimated scf accuracy    <       0.02875147 Ry

     iteration #  2     ecut=    37.00 Ry     beta= 0.70
     Davidson diagonalization with overlap
     ethr =  1.03E-04,  avg # of iterations =  1.0

     negative rho (up, down):  2.267E-05 0.000E+00

     total cpu time spent up to now is        0.8 secs

     total energy              =    -325.59710557 Ry
     estimated scf accuracy    <       0.00163350 Ry

     iteration #  3     ecut=    37.00 Ry     beta= 0.70
     Davidson diagonalization with overlap
     ethr =  5.83E-06,  avg # of iterations =  2.1

     negative rho (up, down):  3.729E-05 0.000E+00

     total cpu time spent up to now is        0.8 secs

     total energy              =    -325.59723978 Ry
     estimated scf accuracy    <       0.00003890 Ry

     iteration #  4     ecut=    37.00 Ry     beta= 0.70
     Davidson diagonalization with overlap
     ethr =  1.39E-07,  avg # of iterations =  3.8

     negative rho (up, down):  4.613E-05 0.000E+00

     total cpu time spent up to now is        0.8 secs

     total energy              =    -325.59725311 Ry
     estimated scf accuracy    <       0.00000320 Ry

     iteration #  5     ecut=    37.00 Ry     beta= 0.70
     Davidson diagonalization with overlap
     ethr =  1.14E-08,  avg # of iterations =  3.0

     negative rho (up, down):  4.512E-05 0.000E+00

     total cpu time spent up to now is        0.8 secs

     total energy              =    -325.59725363 Ry
     estimated scf accuracy    <       0.00000031 Ry

     iteration #  6     ecut=    37.00 Ry     beta= 0.70
     Davidson diagonalization with overlap
     ethr =  1.12E-09,  avg # of iterations =  2.8

     negative rho (up, down):  4.574E-05 0.000E+00

     total cpu time spent up to now is        0.8 secs

     End of self-consistent calculation

          k = 0.0000 0.0000 0.0000 (  1807 PWs)   bands (ev):

   -13.6975 -13.6975 -13.6975 -13.6395 -13.6395 -13.3225 -13.3225 -13.3225
   -13.3122 -13.3122  -2.7016   7.3318   8.0641   8.0641

          k =-0.2500 0.2500-0.2500 (  1751 PWs)   bands (ev):

   -13.7231 -13.7231 -13.6835 -13.5975 -13.5975 -13.3666 -13.3666 -13.3374
   -13.2751 -13.2751  -2.1096   3.9171   7.3009   7.3009

          k = 0.5000-0.5000 0.5000 (  1718 PWs)   bands (ev):

   -13.7325 -13.7325 -13.6699 -13.5767 -13.5767 -13.3817 -13.3817 -13.3548
   -13.2625 -13.2625  -1.0632   1.6341   6.8436   6.8436

          k = 0.0000 0.5000 0.0000 (  1716 PWs)   bands (ev):

   -13.7240 -13.7240 -13.7010 -13.5894 -13.5392 -13.4532 -13.3583 -13.2899
   -13.2789 -13.2789  -1.8926   3.8027   6.3567   6.3567

          k = 0.7500-0.2500 0.7500 (  1728 PWs)   bands (ev):

   -13.7634 -13.7426 -13.6374 -13.5384 -13.5091 -13.4809 -13.4133 -13.3648
   -13.2506 -13.2299  -0.7153   1.6720   5.0200   6.0395

          k = 0.5000 0.0000 0.5000 (  1742 PWs)   bands (ev):

   -13.7570 -13.7452 -13.6309 -13.5734 -13.5358 -13.4276 -13.3963 -13.3818
   -13.2475 -13.2402  -1.2026   2.3643   4.9306   6.7749

          k = 0.0000-1.0000 0.0000 (  1724 PWs)   bands (ev):

   -13.7487 -13.7487 -13.6133 -13.6133 -13.4729 -13.4729 -13.3874 -13.3874
   -13.2414 -13.2414   0.4167   0.4167   5.4849   5.4849

          k =-0.5000-1.0000 0.0000 (  1744 PWs)   bands (ev):

   -13.7669 -13.7669 -13.5543 -13.5543 -13.4824 -13.4824 -13.4370 -13.4370
   -13.2247 -13.2247   0.4770   0.4770   4.9007   4.9007

     highest occupied level (ev):     8.0641

!    total energy              =    -325.59725368 Ry
     estimated scf accuracy    <       0.00000008 Ry

     The total energy is the sum of the following terms:
     one-electron contribution =    -150.95019526 Ry
     hartree contribution      =      93.24494895 Ry
     xc contribution           =     -95.23257698 Ry
     ewald contribution        =    -172.65943038 Ry

     convergence has been achieved in   6 iterations

     Writing all to output data dir ./alpha-sn-scf/alphatin.save/ :
     XML data file, charge density, pseudopotentials, collected wavefunctions

     init_run     :      0.31s CPU      0.37s WALL (       1 calls)
     electrons    :      0.11s CPU      0.17s WALL (       1 calls)

     Called by init_run:
     wfcinit      :      0.01s CPU      0.02s WALL (       1 calls)
     potinit      :      0.01s CPU      0.02s WALL (       1 calls)
     hinit0       :      0.28s CPU      0.30s WALL (       1 calls)

     Called by electrons:
     c_bands      :      0.06s CPU      0.07s WALL (       7 calls)
     sum_band     :      0.02s CPU      0.04s WALL (       7 calls)
     v_of_rho     :      0.02s CPU      0.03s WALL (       7 calls)
     newd         :      0.01s CPU      0.01s WALL (       7 calls)
     mix_rho      :      0.00s CPU      0.00s WALL (       7 calls)

     Called by c_bands:
     init_us_2    :      0.00s CPU      0.00s WALL (      15 calls)
     cegterg      :      0.05s CPU      0.06s WALL (       7 calls)

     Called by *egterg:
     cdiaghg      :      0.01s CPU      0.01s WALL (      27 calls)
     h_psi        :      0.04s CPU      0.05s WALL (      29 calls)
     s_psi        :      0.00s CPU      0.00s WALL (      29 calls)
     g_psi        :      0.00s CPU      0.00s WALL (      21 calls)

     Called by h_psi:
     h_psi:calbec :      0.00s CPU      0.00s WALL (      29 calls)
     vloc_psi     :      0.04s CPU      0.05s WALL (      29 calls)
     add_vuspsi   :      0.00s CPU      0.00s WALL (      29 calls)

     General routines
     calbec       :      0.00s CPU      0.00s WALL (      36 calls)
     fft          :      0.27s CPU      0.27s WALL (      78 calls)
     ffts         :      0.00s CPU      0.00s WALL (       7 calls)
     fftw         :      0.04s CPU      0.05s WALL (     622 calls)

     Parallel routines

     PWSCF        :      0.68s CPU      0.96s WALL


   This run was terminated on:  16: 6:48   5Feb2026            

=------------------------------------------------------------------------------=
   JOB DONE.
=------------------------------------------------------------------------------=
