
     Program PWSCF v.7.3.1 starts on  5Feb2026 at 16:24: 4 

     This program is part of the open-source Quantum ESPRESSO suite
     for quantum simulation of materials; please cite
         "P. Giannozzi et al., J. Phys.:Condens. Matter 21 395502 (2009);
         "P. Giannozzi et al., J. Phys.:Condens. Matter 29 465901 (2017);
         "P. Giannozzi et al., J. Chem. Phys. 152 154105 (2020);
          URL http://www.quantum-espresso.org", 
     in publications or presentations arising from this work. More details at
     http://www.quantum-espresso.org/quote

     Parallel version (MPI), running on   128 processors

     MPI processes distributed on     1 nodes
     241325 MiB available memory on the printing compute node when the environment starts

     Waiting for input...
     Reading input from standard input
     Message from routine read_cards :
     DEPRECATED: no units specified in ATOMIC_POSITIONS card
     Message from routine read_cards :
     ATOMIC_POSITIONS: units set to alat

     Current dimensions of program PWSCF are:
     Max number of different atomic species (ntypx) = 10
     Max number of k-points (npk) =  40000
     Max angular momentum in pseudopotentials (lmaxx) =  4

     K-points division:     npool     =       4
     R & G space division:  proc/nbgrp/npool/nimage =      32
     Subspace diagonalization in iterative solution of the eigenvalue problem:
     a serial algorithm will be used


     Parallelization info
     --------------------
     sticks:   dense  smooth     PW     G-vecs:    dense   smooth      PW
     Min          86      86     24                 3026     3026     437
     Max          87      87     25                 3030     3030     442
     Sum        2773    2773    769                96905    96905   14067

     Using Slab Decomposition



     bravais-lattice index     =            2
     lattice parameter (alat)  =      12.2300  a.u.
     unit-cell volume          =     457.3191 (a.u.)^3
     number of atoms/cell      =            2
     number of atomic types    =            1
     number of electrons       =        28.00
     number of Kohn-Sham states=           14
     kinetic-energy cutoff     =     135.0000  Ry
     charge density cutoff     =     540.0000  Ry
     scf convergence threshold =      1.0E-07
     mixing beta               =       0.7000
     number of iterations used =            8  plain     mixing
     Exchange-correlation=  SLA  PW   GGX  GGC
                           (   1   4   2   2   0   0   0)

     celldm(1)=  12.230000  celldm(2)=   0.000000  celldm(3)=   0.000000
     celldm(4)=   0.000000  celldm(5)=   0.000000  celldm(6)=   0.000000

     crystal axes: (cart. coord. in units of alat)
               a(1) = (  -0.500000   0.000000   0.500000 )  
               a(2) = (   0.000000   0.500000   0.500000 )  
               a(3) = (  -0.500000   0.500000   0.000000 )  

     reciprocal axes: (cart. coord. in units 2 pi/alat)
               b(1) = ( -1.000000 -1.000000  1.000000 )  
               b(2) = (  1.000000  1.000000  1.000000 )  
               b(3) = ( -1.000000  1.000000 -1.000000 )  


     PseudoPot. # 1 for Sn read from file:
     ./Sn.pw91-n-van.UPF
     MD5 check sum: a38d2a872edd1a4efd76c0a1a38f7031
     Pseudo is Ultrasoft + core correction, Zval = 14.0
     Generated by new atomic code, or converted to UPF format
     Using radial grid of  891 points,  6 beta functions with: 
                l(1) =   0
                l(2) =   0
                l(3) =   1
                l(4) =   1
                l(5) =   2
                l(6) =   2
     Q(r) pseudized with  8 coefficients,  rinner =    1.100   1.100   1.100
                                                       1.100   1.100

     atomic species   valence    mass     pseudopotential
     Sn               14.00   118.70000     Sn( 1.00)

     48 Sym. Ops., with inversion, found (24 have fractional translation)



   Cartesian axes

     site n.     atom                  positions (alat units)
         1        Sn     tau(   1) = (   0.0000000   0.0000000   0.0000000  )
         2        Sn     tau(   2) = (   0.2500000   0.2500000   0.2500000  )

     number of k points=     8
                       cart. coord. in units 2pi/alat
        k(    1) = (   0.0000000   0.0000000   0.0000000), wk =   0.0312500
        k(    2) = (  -0.2500000   0.2500000  -0.2500000), wk =   0.2500000
        k(    3) = (   0.5000000  -0.5000000   0.5000000), wk =   0.1250000
        k(    4) = (   0.0000000   0.5000000   0.0000000), wk =   0.1875000
        k(    5) = (   0.7500000  -0.2500000   0.7500000), wk =   0.7500000
        k(    6) = (   0.5000000   0.0000000   0.5000000), wk =   0.3750000
        k(    7) = (   0.0000000  -1.0000000   0.0000000), wk =   0.0937500
        k(    8) = (  -0.5000000  -1.0000000   0.0000000), wk =   0.1875000

     Dense  grid:    96905 G-vectors     FFT dimensions: (  64,  64,  64)

     Estimated max dynamical RAM per process >       6.34 MB

     Estimated total dynamical RAM >     740.84 MB

     Initial potential from superposition of free atoms

     starting charge      27.9964, renormalised to      28.0000
     Starting wfcs are   18 randomized atomic wfcs

     total cpu time spent up to now is        0.8 secs

     per-process dynamical memory:    12.1 Mb

     Self-consistent Calculation

     iteration #  1     ecut=   135.00 Ry     beta= 0.70
     Davidson diagonalization with overlap
     ethr =  1.00E-02,  avg # of iterations =  2.0

     Threshold (ethr) on eigenvalues was too large:
     Diagonalizing with lowered threshold

     Davidson diagonalization with overlap
     ethr =  8.83E-05,  avg # of iterations =  2.0

     total cpu time spent up to now is        0.9 secs

     total energy              =    -325.62335199 Ry
     estimated scf accuracy    <       0.02937140 Ry

     iteration #  2     ecut=   135.00 Ry     beta= 0.70
     Davidson diagonalization with overlap
     ethr =  1.05E-04,  avg # of iterations =  1.0

     total cpu time spent up to now is        1.0 secs

     total energy              =    -325.62508465 Ry
     estimated scf accuracy    <       0.00149322 Ry

     iteration #  3     ecut=   135.00 Ry     beta= 0.70
     Davidson diagonalization with overlap
     ethr =  5.33E-06,  avg # of iterations =  2.4

     total cpu time spent up to now is        1.0 secs

     total energy              =    -325.62523215 Ry
     estimated scf accuracy    <       0.00003402 Ry

     iteration #  4     ecut=   135.00 Ry     beta= 0.70
     Davidson diagonalization with overlap
     ethr =  1.21E-07,  avg # of iterations =  3.6

     total cpu time spent up to now is        1.1 secs

     total energy              =    -325.62524195 Ry
     estimated scf accuracy    <       0.00000267 Ry

     iteration #  5     ecut=   135.00 Ry     beta= 0.70
     Davidson diagonalization with overlap
     ethr =  9.55E-09,  avg # of iterations =  3.0

     total cpu time spent up to now is        1.2 secs

     total energy              =    -325.62524230 Ry
     estimated scf accuracy    <       0.00000016 Ry

     iteration #  6     ecut=   135.00 Ry     beta= 0.70
     Davidson diagonalization with overlap
     ethr =  5.77E-10,  avg # of iterations =  3.8

     total cpu time spent up to now is        1.2 secs

     End of self-consistent calculation

          k = 0.0000 0.0000 0.0000 ( 12039 PWs)   bands (ev):

   -13.7110 -13.7110 -13.7110 -13.6517 -13.6517 -13.3342 -13.3342 -13.3342
   -13.3258 -13.3258  -2.7005   7.3364   8.0634   8.0634

          k =-0.2500 0.2500-0.2500 ( 12101 PWs)   bands (ev):

   -13.7373 -13.7373 -13.6979 -13.6111 -13.6111 -13.3800 -13.3800 -13.3512
   -13.2885 -13.2885  -2.1085   3.9183   7.3003   7.3003

          k = 0.5000-0.5000 0.5000 ( 12104 PWs)   bands (ev):

   -13.7480 -13.7480 -13.6839 -13.5898 -13.5898 -13.3962 -13.3962 -13.3689
   -13.2768 -13.2768  -1.0620   1.6349   6.8431   6.8431

          k = 0.0000 0.5000 0.0000 ( 12087 PWs)   bands (ev):

   -13.7392 -13.7392 -13.7150 -13.6032 -13.5534 -13.4669 -13.3726 -13.3042
   -13.2932 -13.2932  -1.8915   3.8044   6.3561   6.3561

          k = 0.7500-0.2500 0.7500 ( 12113 PWs)   bands (ev):

   -13.7780 -13.7575 -13.6511 -13.5524 -13.5232 -13.4950 -13.4274 -13.3787
   -13.2648 -13.2437  -0.7141   1.6732   5.0194   6.0390

          k = 0.5000 0.0000 0.5000 ( 12088 PWs)   bands (ev):

   -13.7714 -13.7594 -13.6451 -13.5868 -13.5492 -13.4413 -13.4103 -13.3960
   -13.2610 -13.2540  -1.2015   2.3656   4.9299   6.7744

          k = 0.0000-1.0000 0.0000 ( 12150 PWs)   bands (ev):

   -13.7635 -13.7635 -13.6268 -13.6268 -13.4870 -13.4870 -13.4016 -13.4016
   -13.2558 -13.2558   0.4180   0.4180   5.4845   5.4845

          k =-0.5000-1.0000 0.0000 ( 12180 PWs)   bands (ev):

   -13.7816 -13.7816 -13.5680 -13.5680 -13.4963 -13.4963 -13.4509 -13.4509
   -13.2382 -13.2382   0.4783   0.4783   4.9000   4.9000

     highest occupied level (ev):     8.0634

!    total energy              =    -325.62524234 Ry
     estimated scf accuracy    <       0.00000003 Ry

     The total energy is the sum of the following terms:
     one-electron contribution =    -150.98652890 Ry
     hartree contribution      =      93.25380964 Ry
     xc contribution           =     -95.23309272 Ry
     ewald contribution        =    -172.65943036 Ry

     convergence has been achieved in   6 iterations

     Writing all to output data dir ./alpha-sn-scf/alphatin.save/ :
     XML data file, charge density, pseudopotentials, collected wavefunctions

     init_run     :      0.42s CPU      0.51s WALL (       1 calls)
     electrons    :      0.40s CPU      0.46s WALL (       1 calls)

     Called by init_run:
     wfcinit      :      0.06s CPU      0.08s WALL (       1 calls)
     potinit      :      0.01s CPU      0.03s WALL (       1 calls)
     hinit0       :      0.30s CPU      0.31s WALL (       1 calls)

     Called by electrons:
     c_bands      :      0.22s CPU      0.23s WALL (       7 calls)
     sum_band     :      0.09s CPU      0.10s WALL (       7 calls)
     v_of_rho     :      0.04s CPU      0.06s WALL (       7 calls)
     newd         :      0.03s CPU      0.04s WALL (       7 calls)
     mix_rho      :      0.01s CPU      0.01s WALL (       7 calls)

     Called by c_bands:
     init_us_2    :      0.01s CPU      0.01s WALL (      30 calls)
     cegterg      :      0.20s CPU      0.21s WALL (      14 calls)

     Called by *egterg:
     cdiaghg      :      0.02s CPU      0.02s WALL (      56 calls)
     h_psi        :      0.22s CPU      0.23s WALL (      60 calls)
     s_psi        :      0.00s CPU      0.00s WALL (      60 calls)
     g_psi        :      0.00s CPU      0.00s WALL (      44 calls)

     Called by h_psi:
     h_psi:calbec :      0.01s CPU      0.01s WALL (      60 calls)
     vloc_psi     :      0.20s CPU      0.21s WALL (      60 calls)
     add_vuspsi   :      0.00s CPU      0.00s WALL (      60 calls)

     General routines
     calbec       :      0.01s CPU      0.01s WALL (      74 calls)
     fft          :      0.28s CPU      0.29s WALL (      78 calls)
     ffts         :      0.00s CPU      0.00s WALL (       7 calls)
     fftw         :      0.21s CPU      0.22s WALL (    1246 calls)

     Parallel routines

     PWSCF        :      1.05s CPU      1.38s WALL


   This run was terminated on:  16:24: 5   5Feb2026            

=------------------------------------------------------------------------------=
   JOB DONE.
=------------------------------------------------------------------------------=
