
     Program PWSCF v.7.3.1 starts on  5Feb2026 at 16:25: 4 

     This program is part of the open-source Quantum ESPRESSO suite
     for quantum simulation of materials; please cite
         "P. Giannozzi et al., J. Phys.:Condens. Matter 21 395502 (2009);
         "P. Giannozzi et al., J. Phys.:Condens. Matter 29 465901 (2017);
         "P. Giannozzi et al., J. Chem. Phys. 152 154105 (2020);
          URL http://www.quantum-espresso.org", 
     in publications or presentations arising from this work. More details at
     http://www.quantum-espresso.org/quote

     Parallel version (MPI), running on   128 processors

     MPI processes distributed on     1 nodes
     241396 MiB available memory on the printing compute node when the environment starts

     Waiting for input...
     Reading input from standard input
     Message from routine read_cards :
     DEPRECATED: no units specified in ATOMIC_POSITIONS card
     Message from routine read_cards :
     ATOMIC_POSITIONS: units set to alat

     Current dimensions of program PWSCF are:
     Max number of different atomic species (ntypx) = 10
     Max number of k-points (npk) =  40000
     Max angular momentum in pseudopotentials (lmaxx) =  4

     K-points division:     npool     =       4
     R & G space division:  proc/nbgrp/npool/nimage =      32
     Subspace diagonalization in iterative solution of the eigenvalue problem:
     a serial algorithm will be used


     Parallelization info
     --------------------
     sticks:   dense  smooth     PW     G-vecs:    dense   smooth      PW
     Min          90      90     25                 3235     3235     468
     Max          91      91     26                 3240     3240     471
     Sum        2905    2905    805               103619   103619   15009

     Using Slab Decomposition



     bravais-lattice index     =            2
     lattice parameter (alat)  =      12.2300  a.u.
     unit-cell volume          =     457.3191 (a.u.)^3
     number of atoms/cell      =            2
     number of atomic types    =            1
     number of electrons       =        28.00
     number of Kohn-Sham states=           14
     kinetic-energy cutoff     =     141.0000  Ry
     charge density cutoff     =     564.0000  Ry
     scf convergence threshold =      1.0E-07
     mixing beta               =       0.7000
     number of iterations used =            8  plain     mixing
     Exchange-correlation=  SLA  PW   GGX  GGC
                           (   1   4   2   2   0   0   0)

     celldm(1)=  12.230000  celldm(2)=   0.000000  celldm(3)=   0.000000
     celldm(4)=   0.000000  celldm(5)=   0.000000  celldm(6)=   0.000000

     crystal axes: (cart. coord. in units of alat)
               a(1) = (  -0.500000   0.000000   0.500000 )  
               a(2) = (   0.000000   0.500000   0.500000 )  
               a(3) = (  -0.500000   0.500000   0.000000 )  

     reciprocal axes: (cart. coord. in units 2 pi/alat)
               b(1) = ( -1.000000 -1.000000  1.000000 )  
               b(2) = (  1.000000  1.000000  1.000000 )  
               b(3) = ( -1.000000  1.000000 -1.000000 )  


     PseudoPot. # 1 for Sn read from file:
     ./Sn.pw91-n-van.UPF
     MD5 check sum: a38d2a872edd1a4efd76c0a1a38f7031
     Pseudo is Ultrasoft + core correction, Zval = 14.0
     Generated by new atomic code, or converted to UPF format
     Using radial grid of  891 points,  6 beta functions with: 
                l(1) =   0
                l(2) =   0
                l(3) =   1
                l(4) =   1
                l(5) =   2
                l(6) =   2
     Q(r) pseudized with  8 coefficients,  rinner =    1.100   1.100   1.100
                                                       1.100   1.100

     atomic species   valence    mass     pseudopotential
     Sn               14.00   118.70000     Sn( 1.00)

     48 Sym. Ops., with inversion, found (24 have fractional translation)



   Cartesian axes

     site n.     atom                  positions (alat units)
         1        Sn     tau(   1) = (   0.0000000   0.0000000   0.0000000  )
         2        Sn     tau(   2) = (   0.2500000   0.2500000   0.2500000  )

     number of k points=     8
                       cart. coord. in units 2pi/alat
        k(    1) = (   0.0000000   0.0000000   0.0000000), wk =   0.0312500
        k(    2) = (  -0.2500000   0.2500000  -0.2500000), wk =   0.2500000
        k(    3) = (   0.5000000  -0.5000000   0.5000000), wk =   0.1250000
        k(    4) = (   0.0000000   0.5000000   0.0000000), wk =   0.1875000
        k(    5) = (   0.7500000  -0.2500000   0.7500000), wk =   0.7500000
        k(    6) = (   0.5000000   0.0000000   0.5000000), wk =   0.3750000
        k(    7) = (   0.0000000  -1.0000000   0.0000000), wk =   0.0937500
        k(    8) = (  -0.5000000  -1.0000000   0.0000000), wk =   0.1875000

     Dense  grid:   103619 G-vectors     FFT dimensions: (  72,  72,  72)

     Estimated max dynamical RAM per process >       7.16 MB

     Estimated total dynamical RAM >     840.74 MB

     Initial potential from superposition of free atoms

     starting charge      27.9964, renormalised to      28.0000
     Starting wfcs are   18 randomized atomic wfcs

     total cpu time spent up to now is        1.1 secs

     per-process dynamical memory:    12.9 Mb

     Self-consistent Calculation

     iteration #  1     ecut=   141.00 Ry     beta= 0.70
     Davidson diagonalization with overlap
     ethr =  1.00E-02,  avg # of iterations =  1.9

     Threshold (ethr) on eigenvalues was too large:
     Diagonalizing with lowered threshold

     Davidson diagonalization with overlap
     ethr =  8.99E-05,  avg # of iterations =  2.1

     total cpu time spent up to now is        1.3 secs

     total energy              =    -325.62416483 Ry
     estimated scf accuracy    <       0.02960243 Ry

     iteration #  2     ecut=   141.00 Ry     beta= 0.70
     Davidson diagonalization with overlap
     ethr =  1.06E-04,  avg # of iterations =  1.1

     total cpu time spent up to now is        1.3 secs

     total energy              =    -325.62618127 Ry
     estimated scf accuracy    <       0.00147266 Ry

     iteration #  3     ecut=   141.00 Ry     beta= 0.70
     Davidson diagonalization with overlap
     ethr =  5.26E-06,  avg # of iterations =  2.2

     total cpu time spent up to now is        1.4 secs

     total energy              =    -325.62633941 Ry
     estimated scf accuracy    <       0.00003358 Ry

     iteration #  4     ecut=   141.00 Ry     beta= 0.70
     Davidson diagonalization with overlap
     ethr =  1.20E-07,  avg # of iterations =  4.4

     total cpu time spent up to now is        1.5 secs

     total energy              =    -325.62635086 Ry
     estimated scf accuracy    <       0.00000260 Ry

     iteration #  5     ecut=   141.00 Ry     beta= 0.70
     Davidson diagonalization with overlap
     ethr =  9.28E-09,  avg # of iterations =  2.6

     total cpu time spent up to now is        1.6 secs

     total energy              =    -325.62635114 Ry
     estimated scf accuracy    <       0.00000017 Ry

     iteration #  6     ecut=   141.00 Ry     beta= 0.70
     Davidson diagonalization with overlap
     ethr =  6.00E-10,  avg # of iterations =  2.9

     total cpu time spent up to now is        1.7 secs

     End of self-consistent calculation

          k = 0.0000 0.0000 0.0000 ( 12939 PWs)   bands (ev):

   -13.7115 -13.7115 -13.7115 -13.6525 -13.6525 -13.3352 -13.3352 -13.3352
   -13.3263 -13.3263  -2.7006   7.3363   8.0632   8.0632

          k =-0.2500 0.2500-0.2500 ( 12939 PWs)   bands (ev):

   -13.7379 -13.7379 -13.6985 -13.6117 -13.6117 -13.3807 -13.3807 -13.3519
   -13.2892 -13.2892  -2.1086   3.9182   7.3002   7.3002

          k = 0.5000-0.5000 0.5000 ( 12938 PWs)   bands (ev):

   -13.7487 -13.7487 -13.6845 -13.5905 -13.5905 -13.3970 -13.3970 -13.3696
   -13.2775 -13.2775  -1.0622   1.6348   6.8430   6.8430

          k = 0.0000 0.5000 0.0000 ( 12935 PWs)   bands (ev):

   -13.7398 -13.7398 -13.7157 -13.6038 -13.5541 -13.4677 -13.3732 -13.3050
   -13.2938 -13.2938  -1.8916   3.8042   6.3560   6.3560

          k = 0.7500-0.2500 0.7500 ( 12934 PWs)   bands (ev):

   -13.7786 -13.7581 -13.6518 -13.5530 -13.5239 -13.4957 -13.4281 -13.3794
   -13.2655 -13.2444  -0.7142   1.6731   5.0194   6.0389

          k = 0.5000 0.0000 0.5000 ( 12914 PWs)   bands (ev):

   -13.7720 -13.7600 -13.6457 -13.5875 -13.5498 -13.4420 -13.4109 -13.3967
   -13.2617 -13.2547  -1.2016   2.3655   4.9298   6.7743

          k = 0.0000-1.0000 0.0000 ( 12976 PWs)   bands (ev):

   -13.7640 -13.7640 -13.6275 -13.6275 -13.4876 -13.4876 -13.4023 -13.4023
   -13.2565 -13.2565   0.4179   0.4179   5.4844   5.4844

          k =-0.5000-1.0000 0.0000 ( 12904 PWs)   bands (ev):

   -13.7820 -13.7820 -13.5685 -13.5685 -13.4968 -13.4968 -13.4514 -13.4514
   -13.2389 -13.2389   0.4782   0.4782   4.9000   4.9000

     highest occupied level (ev):     8.0632

!    total energy              =    -325.62635118 Ry
     estimated scf accuracy    <       0.00000001 Ry

     The total energy is the sum of the following terms:
     one-electron contribution =    -150.98840733 Ry
     hartree contribution      =      93.25481047 Ry
     xc contribution           =     -95.23332395 Ry
     ewald contribution        =    -172.65943036 Ry

     convergence has been achieved in   6 iterations

     Writing all to output data dir ./alpha-sn-scf/alphatin.save/ :
     XML data file, charge density, pseudopotentials, collected wavefunctions

     init_run     :      0.69s CPU      0.76s WALL (       1 calls)
     electrons    :      0.54s CPU      0.63s WALL (       1 calls)

     Called by init_run:
     wfcinit      :      0.03s CPU      0.04s WALL (       1 calls)
     potinit      :      0.03s CPU      0.04s WALL (       1 calls)
     hinit0       :      0.57s CPU      0.59s WALL (       1 calls)

     Called by electrons:
     c_bands      :      0.29s CPU      0.33s WALL (       7 calls)
     sum_band     :      0.11s CPU      0.12s WALL (       7 calls)
     v_of_rho     :      0.09s CPU      0.10s WALL (       7 calls)
     newd         :      0.03s CPU      0.04s WALL (       7 calls)
     mix_rho      :      0.01s CPU      0.01s WALL (       7 calls)

     Called by c_bands:
     init_us_2    :      0.01s CPU      0.01s WALL (      30 calls)
     cegterg      :      0.28s CPU      0.30s WALL (      14 calls)

     Called by *egterg:
     cdiaghg      :      0.02s CPU      0.02s WALL (      54 calls)
     h_psi        :      0.26s CPU      0.29s WALL (      58 calls)
     s_psi        :      0.00s CPU      0.00s WALL (      58 calls)
     g_psi        :      0.00s CPU      0.00s WALL (      42 calls)

     Called by h_psi:
     h_psi:calbec :      0.01s CPU      0.01s WALL (      58 calls)
     vloc_psi     :      0.25s CPU      0.27s WALL (      58 calls)
     add_vuspsi   :      0.00s CPU      0.00s WALL (      58 calls)

     General routines
     calbec       :      0.01s CPU      0.01s WALL (      72 calls)
     fft          :      0.58s CPU      0.59s WALL (      78 calls)
     ffts         :      0.00s CPU      0.00s WALL (       7 calls)
     fftw         :      0.26s CPU      0.28s WALL (    1236 calls)

     Parallel routines

     PWSCF        :      1.48s CPU      1.83s WALL


   This run was terminated on:  16:25: 6   5Feb2026            

=------------------------------------------------------------------------------=
   JOB DONE.
=------------------------------------------------------------------------------=
