
     Program PWSCF v.7.3.1 starts on  5Feb2026 at 16:31:14 

     This program is part of the open-source Quantum ESPRESSO suite
     for quantum simulation of materials; please cite
         "P. Giannozzi et al., J. Phys.:Condens. Matter 21 395502 (2009);
         "P. Giannozzi et al., J. Phys.:Condens. Matter 29 465901 (2017);
         "P. Giannozzi et al., J. Chem. Phys. 152 154105 (2020);
          URL http://www.quantum-espresso.org", 
     in publications or presentations arising from this work. More details at
     http://www.quantum-espresso.org/quote

     Parallel version (MPI), running on   128 processors

     MPI processes distributed on     1 nodes
     241307 MiB available memory on the printing compute node when the environment starts

     Waiting for input...
     Reading input from standard input
     Message from routine read_cards :
     DEPRECATED: no units specified in ATOMIC_POSITIONS card
     Message from routine read_cards :
     ATOMIC_POSITIONS: units set to alat

     Current dimensions of program PWSCF are:
     Max number of different atomic species (ntypx) = 10
     Max number of k-points (npk) =  40000
     Max angular momentum in pseudopotentials (lmaxx) =  4

     K-points division:     npool     =       4
     R & G space division:  proc/nbgrp/npool/nimage =      32
     Subspace diagonalization in iterative solution of the eigenvalue problem:
     a serial algorithm will be used


     Parallelization info
     --------------------
     sticks:   dense  smooth     PW     G-vecs:    dense   smooth      PW
     Min         111     111     29                 4393     4393     617
     Max         112     112     30                 4397     4397     623
     Sum        3571    3571    955               140639   140639   19891

     Using Slab Decomposition



     bravais-lattice index     =            2
     lattice parameter (alat)  =      12.2300  a.u.
     unit-cell volume          =     457.3191 (a.u.)^3
     number of atoms/cell      =            2
     number of atomic types    =            1
     number of electrons       =        28.00
     number of Kohn-Sham states=           14
     kinetic-energy cutoff     =     173.0000  Ry
     charge density cutoff     =     692.0000  Ry
     scf convergence threshold =      1.0E-07
     mixing beta               =       0.7000
     number of iterations used =            8  plain     mixing
     Exchange-correlation=  SLA  PW   GGX  GGC
                           (   1   4   2   2   0   0   0)

     celldm(1)=  12.230000  celldm(2)=   0.000000  celldm(3)=   0.000000
     celldm(4)=   0.000000  celldm(5)=   0.000000  celldm(6)=   0.000000

     crystal axes: (cart. coord. in units of alat)
               a(1) = (  -0.500000   0.000000   0.500000 )  
               a(2) = (   0.000000   0.500000   0.500000 )  
               a(3) = (  -0.500000   0.500000   0.000000 )  

     reciprocal axes: (cart. coord. in units 2 pi/alat)
               b(1) = ( -1.000000 -1.000000  1.000000 )  
               b(2) = (  1.000000  1.000000  1.000000 )  
               b(3) = ( -1.000000  1.000000 -1.000000 )  


     PseudoPot. # 1 for Sn read from file:
     ./Sn.pw91-n-van.UPF
     MD5 check sum: a38d2a872edd1a4efd76c0a1a38f7031
     Pseudo is Ultrasoft + core correction, Zval = 14.0
     Generated by new atomic code, or converted to UPF format
     Using radial grid of  891 points,  6 beta functions with: 
                l(1) =   0
                l(2) =   0
                l(3) =   1
                l(4) =   1
                l(5) =   2
                l(6) =   2
     Q(r) pseudized with  8 coefficients,  rinner =    1.100   1.100   1.100
                                                       1.100   1.100

     atomic species   valence    mass     pseudopotential
     Sn               14.00   118.70000     Sn( 1.00)

     48 Sym. Ops., with inversion, found (24 have fractional translation)



   Cartesian axes

     site n.     atom                  positions (alat units)
         1        Sn     tau(   1) = (   0.0000000   0.0000000   0.0000000  )
         2        Sn     tau(   2) = (   0.2500000   0.2500000   0.2500000  )

     number of k points=     8
                       cart. coord. in units 2pi/alat
        k(    1) = (   0.0000000   0.0000000   0.0000000), wk =   0.0312500
        k(    2) = (  -0.2500000   0.2500000  -0.2500000), wk =   0.2500000
        k(    3) = (   0.5000000  -0.5000000   0.5000000), wk =   0.1250000
        k(    4) = (   0.0000000   0.5000000   0.0000000), wk =   0.1875000
        k(    5) = (   0.7500000  -0.2500000   0.7500000), wk =   0.7500000
        k(    6) = (   0.5000000   0.0000000   0.5000000), wk =   0.3750000
        k(    7) = (   0.0000000  -1.0000000   0.0000000), wk =   0.0937500
        k(    8) = (  -0.5000000  -1.0000000   0.0000000), wk =   0.1875000

     Dense  grid:   140639 G-vectors     FFT dimensions: (  80,  80,  80)

     Estimated max dynamical RAM per process >       9.11 MB

     Estimated total dynamical RAM >       1.04 GB

     Initial potential from superposition of free atoms

     starting charge      27.9964, renormalised to      28.0000
     Starting wfcs are   18 randomized atomic wfcs

     total cpu time spent up to now is        1.1 secs

     per-process dynamical memory:    13.8 Mb

     Self-consistent Calculation

     iteration #  1     ecut=   173.00 Ry     beta= 0.70
     Davidson diagonalization with overlap
     ethr =  1.00E-02,  avg # of iterations =  2.0

     Threshold (ethr) on eigenvalues was too large:
     Diagonalizing with lowered threshold

     Davidson diagonalization with overlap
     ethr =  8.98E-05,  avg # of iterations =  1.9

     total cpu time spent up to now is        1.3 secs

     total energy              =    -325.62435122 Ry
     estimated scf accuracy    <       0.02925745 Ry

     iteration #  2     ecut=   173.00 Ry     beta= 0.70
     Davidson diagonalization with overlap
     ethr =  1.04E-04,  avg # of iterations =  1.5

     negative rho (up, down):  8.386E-07 0.000E+00

     total cpu time spent up to now is        1.4 secs

     total energy              =    -325.62860980 Ry
     estimated scf accuracy    <       0.00161710 Ry

     iteration #  3     ecut=   173.00 Ry     beta= 0.70
     Davidson diagonalization with overlap
     ethr =  5.78E-06,  avg # of iterations =  2.5

     negative rho (up, down):  2.611E-06 0.000E+00

     total cpu time spent up to now is        1.5 secs

     total energy              =    -325.62885657 Ry
     estimated scf accuracy    <       0.00006105 Ry

     iteration #  4     ecut=   173.00 Ry     beta= 0.70
     Davidson diagonalization with overlap
     ethr =  2.18E-07,  avg # of iterations =  2.9

     negative rho (up, down):  3.754E-06 0.000E+00

     total cpu time spent up to now is        1.6 secs

     total energy              =    -325.62888046 Ry
     estimated scf accuracy    <       0.00000492 Ry

     iteration #  5     ecut=   173.00 Ry     beta= 0.70
     Davidson diagonalization with overlap
     ethr =  1.76E-08,  avg # of iterations =  3.5

     negative rho (up, down):  3.661E-06 0.000E+00

     total cpu time spent up to now is        1.7 secs

     total energy              =    -325.62888090 Ry
     estimated scf accuracy    <       0.00000091 Ry

     iteration #  6     ecut=   173.00 Ry     beta= 0.70
     Davidson diagonalization with overlap
     ethr =  3.25E-09,  avg # of iterations =  2.2

     negative rho (up, down):  3.645E-06 0.000E+00

     total cpu time spent up to now is        1.8 secs

     End of self-consistent calculation

          k = 0.0000 0.0000 0.0000 ( 17477 PWs)   bands (ev):

   -13.7138 -13.7138 -13.7138 -13.6548 -13.6548 -13.3375 -13.3375 -13.3375
   -13.3287 -13.3287  -2.7012   7.3357   8.0625   8.0625

          k =-0.2500 0.2500-0.2500 ( 17532 PWs)   bands (ev):

   -13.7402 -13.7402 -13.7008 -13.6140 -13.6140 -13.3831 -13.3831 -13.3543
   -13.2917 -13.2917  -2.1092   3.9176   7.2996   7.2996

          k = 0.5000-0.5000 0.5000 ( 17580 PWs)   bands (ev):

   -13.7510 -13.7510 -13.6870 -13.5928 -13.5928 -13.3993 -13.3993 -13.3721
   -13.2800 -13.2800  -1.0628   1.6343   6.8424   6.8424

          k = 0.0000 0.5000 0.0000 ( 17582 PWs)   bands (ev):

   -13.7422 -13.7422 -13.7180 -13.6061 -13.5564 -13.4701 -13.3756 -13.3073
   -13.2963 -13.2963  -1.8922   3.8036   6.3555   6.3555

          k = 0.7500-0.2500 0.7500 ( 17577 PWs)   bands (ev):

   -13.7809 -13.7604 -13.6542 -13.5553 -13.5262 -13.4980 -13.4304 -13.3818
   -13.2680 -13.2469  -0.7148   1.6725   5.0189   6.0383

          k = 0.5000 0.0000 0.5000 ( 17568 PWs)   bands (ev):

   -13.7743 -13.7624 -13.6481 -13.5898 -13.5521 -13.4443 -13.4134 -13.3991
   -13.2642 -13.2572  -1.2022   2.3649   4.9294   6.7737

          k = 0.0000-1.0000 0.0000 ( 17614 PWs)   bands (ev):

   -13.7664 -13.7664 -13.6298 -13.6298 -13.4900 -13.4900 -13.4046 -13.4046
   -13.2589 -13.2589   0.4173   0.4173   5.4839   5.4839

          k =-0.5000-1.0000 0.0000 ( 17620 PWs)   bands (ev):

   -13.7844 -13.7844 -13.5710 -13.5710 -13.4992 -13.4992 -13.4538 -13.4538
   -13.2414 -13.2414   0.4776   0.4776   4.8995   4.8995

     highest occupied level (ev):     8.0625

!    total energy              =    -325.62888097 Ry
     estimated scf accuracy    <       0.00000003 Ry

     The total energy is the sum of the following terms:
     one-electron contribution =    -150.99307240 Ry
     hartree contribution      =      93.25745838 Ry
     xc contribution           =     -95.23383659 Ry
     ewald contribution        =    -172.65943036 Ry

     convergence has been achieved in   6 iterations

     Writing all to output data dir ./alpha-sn-scf/alphatin.save/ :
     XML data file, charge density, pseudopotentials, collected wavefunctions

     init_run     :      0.72s CPU      0.79s WALL (       1 calls)
     electrons    :      0.63s CPU      0.75s WALL (       1 calls)

     Called by init_run:
     wfcinit      :      0.03s CPU      0.05s WALL (       1 calls)
     potinit      :      0.02s CPU      0.04s WALL (       1 calls)
     hinit0       :      0.58s CPU      0.59s WALL (       1 calls)

     Called by electrons:
     c_bands      :      0.33s CPU      0.37s WALL (       7 calls)
     sum_band     :      0.14s CPU      0.16s WALL (       7 calls)
     v_of_rho     :      0.10s CPU      0.12s WALL (       7 calls)
     newd         :      0.05s CPU      0.05s WALL (       7 calls)
     mix_rho      :      0.01s CPU      0.01s WALL (       7 calls)

     Called by c_bands:
     init_us_2    :      0.01s CPU      0.01s WALL (      30 calls)
     cegterg      :      0.31s CPU      0.34s WALL (      14 calls)

     Called by *egterg:
     cdiaghg      :      0.01s CPU      0.02s WALL (      51 calls)
     h_psi        :      0.30s CPU      0.33s WALL (      55 calls)
     s_psi        :      0.00s CPU      0.01s WALL (      55 calls)
     g_psi        :      0.00s CPU      0.00s WALL (      39 calls)

     Called by h_psi:
     h_psi:calbec :      0.01s CPU      0.01s WALL (      55 calls)
     vloc_psi     :      0.28s CPU      0.31s WALL (      55 calls)
     add_vuspsi   :      0.01s CPU      0.01s WALL (      55 calls)

     General routines
     calbec       :      0.01s CPU      0.01s WALL (      69 calls)
     fft          :      0.59s CPU      0.60s WALL (      78 calls)
     ffts         :      0.01s CPU      0.01s WALL (       7 calls)
     fftw         :      0.29s CPU      0.32s WALL (    1200 calls)

     Parallel routines

     PWSCF        :      1.64s CPU      1.99s WALL


   This run was terminated on:  16:31:16   5Feb2026            

=------------------------------------------------------------------------------=
   JOB DONE.
=------------------------------------------------------------------------------=
