
     Program PWSCF v.7.3.1 starts on  5Feb2026 at 16:10:57 

     This program is part of the open-source Quantum ESPRESSO suite
     for quantum simulation of materials; please cite
         "P. Giannozzi et al., J. Phys.:Condens. Matter 21 395502 (2009);
         "P. Giannozzi et al., J. Phys.:Condens. Matter 29 465901 (2017);
         "P. Giannozzi et al., J. Chem. Phys. 152 154105 (2020);
          URL http://www.quantum-espresso.org", 
     in publications or presentations arising from this work. More details at
     http://www.quantum-espresso.org/quote

     Parallel version (MPI), running on   128 processors

     MPI processes distributed on     1 nodes
     241472 MiB available memory on the printing compute node when the environment starts

     Waiting for input...
     Reading input from standard input
     Message from routine read_cards :
     DEPRECATED: no units specified in ATOMIC_POSITIONS card
     Message from routine read_cards :
     ATOMIC_POSITIONS: units set to alat

     Current dimensions of program PWSCF are:
     Max number of different atomic species (ntypx) = 10
     Max number of k-points (npk) =  40000
     Max angular momentum in pseudopotentials (lmaxx) =  4

     K-points division:     npool     =       8
     R & G space division:  proc/nbgrp/npool/nimage =      16
     Subspace diagonalization in iterative solution of the eigenvalue problem:
     a serial algorithm will be used


     Parallelization info
     --------------------
     sticks:   dense  smooth     PW     G-vecs:    dense   smooth      PW
     Min          80      80     22                 1925     1925     291
     Max          81      81     23                 1930     1930     294
     Sum        1285    1285    367                30827    30827    4693

     Using Slab Decomposition



     bravais-lattice index     =            2
     lattice parameter (alat)  =      12.2300  a.u.
     unit-cell volume          =     457.3191 (a.u.)^3
     number of atoms/cell      =            2
     number of atomic types    =            1
     number of electrons       =        28.00
     number of Kohn-Sham states=           14
     kinetic-energy cutoff     =      63.0000  Ry
     charge density cutoff     =     252.0000  Ry
     scf convergence threshold =      1.0E-07
     mixing beta               =       0.7000
     number of iterations used =            8  plain     mixing
     Exchange-correlation=  SLA  PW   GGX  GGC
                           (   1   4   2   2   0   0   0)

     celldm(1)=  12.230000  celldm(2)=   0.000000  celldm(3)=   0.000000
     celldm(4)=   0.000000  celldm(5)=   0.000000  celldm(6)=   0.000000

     crystal axes: (cart. coord. in units of alat)
               a(1) = (  -0.500000   0.000000   0.500000 )  
               a(2) = (   0.000000   0.500000   0.500000 )  
               a(3) = (  -0.500000   0.500000   0.000000 )  

     reciprocal axes: (cart. coord. in units 2 pi/alat)
               b(1) = ( -1.000000 -1.000000  1.000000 )  
               b(2) = (  1.000000  1.000000  1.000000 )  
               b(3) = ( -1.000000  1.000000 -1.000000 )  


     PseudoPot. # 1 for Sn read from file:
     ./Sn.pw91-n-van.UPF
     MD5 check sum: a38d2a872edd1a4efd76c0a1a38f7031
     Pseudo is Ultrasoft + core correction, Zval = 14.0
     Generated by new atomic code, or converted to UPF format
     Using radial grid of  891 points,  6 beta functions with: 
                l(1) =   0
                l(2) =   0
                l(3) =   1
                l(4) =   1
                l(5) =   2
                l(6) =   2
     Q(r) pseudized with  8 coefficients,  rinner =    1.100   1.100   1.100
                                                       1.100   1.100

     atomic species   valence    mass     pseudopotential
     Sn               14.00   118.70000     Sn( 1.00)

     48 Sym. Ops., with inversion, found (24 have fractional translation)



   Cartesian axes

     site n.     atom                  positions (alat units)
         1        Sn     tau(   1) = (   0.0000000   0.0000000   0.0000000  )
         2        Sn     tau(   2) = (   0.2500000   0.2500000   0.2500000  )

     number of k points=     8
                       cart. coord. in units 2pi/alat
        k(    1) = (   0.0000000   0.0000000   0.0000000), wk =   0.0312500
        k(    2) = (  -0.2500000   0.2500000  -0.2500000), wk =   0.2500000
        k(    3) = (   0.5000000  -0.5000000   0.5000000), wk =   0.1250000
        k(    4) = (   0.0000000   0.5000000   0.0000000), wk =   0.1875000
        k(    5) = (   0.7500000  -0.2500000   0.7500000), wk =   0.7500000
        k(    6) = (   0.5000000   0.0000000   0.5000000), wk =   0.3750000
        k(    7) = (   0.0000000  -1.0000000   0.0000000), wk =   0.0937500
        k(    8) = (  -0.5000000  -1.0000000   0.0000000), wk =   0.1875000

     Dense  grid:    30827 G-vectors     FFT dimensions: (  48,  48,  48)

     Estimated max dynamical RAM per process >       3.45 MB

     Estimated total dynamical RAM >     388.69 MB

     Initial potential from superposition of free atoms

     starting charge      27.9964, renormalised to      28.0000
     Starting wfcs are   18 randomized atomic wfcs

     total cpu time spent up to now is        0.8 secs

     per-process dynamical memory:    11.1 Mb

     Self-consistent Calculation

     iteration #  1     ecut=    63.00 Ry     beta= 0.70
     Davidson diagonalization with overlap
     ethr =  1.00E-02,  avg # of iterations =  1.5

     Threshold (ethr) on eigenvalues was too large:
     Diagonalizing with lowered threshold

     Davidson diagonalization with overlap
     ethr =  8.26E-05,  avg # of iterations =  2.2

     total cpu time spent up to now is        0.9 secs

     total energy              =    -325.61140622 Ry
     estimated scf accuracy    <       0.02883062 Ry

     iteration #  2     ecut=    63.00 Ry     beta= 0.70
     Davidson diagonalization with overlap
     ethr =  1.03E-04,  avg # of iterations =  1.0

     total cpu time spent up to now is        0.9 secs

     total energy              =    -325.61247190 Ry
     estimated scf accuracy    <       0.00160825 Ry

     iteration #  3     ecut=    63.00 Ry     beta= 0.70
     Davidson diagonalization with overlap
     ethr =  5.74E-06,  avg # of iterations =  2.1

     total cpu time spent up to now is        0.9 secs

     total energy              =    -325.61260101 Ry
     estimated scf accuracy    <       0.00003536 Ry

     iteration #  4     ecut=    63.00 Ry     beta= 0.70
     Davidson diagonalization with overlap
     ethr =  1.26E-07,  avg # of iterations =  3.0

     total cpu time spent up to now is        0.9 secs

     total energy              =    -325.61261203 Ry
     estimated scf accuracy    <       0.00000299 Ry

     iteration #  5     ecut=    63.00 Ry     beta= 0.70
     Davidson diagonalization with overlap
     ethr =  1.07E-08,  avg # of iterations =  4.2

     total cpu time spent up to now is        1.0 secs

     total energy              =    -325.61261272 Ry
     estimated scf accuracy    <       0.00000024 Ry

     iteration #  6     ecut=    63.00 Ry     beta= 0.70
     Davidson diagonalization with overlap
     ethr =  8.43E-10,  avg # of iterations =  2.6

     total cpu time spent up to now is        1.0 secs

     End of self-consistent calculation

          k = 0.0000 0.0000 0.0000 (  3839 PWs)   bands (ev):

   -13.7003 -13.7003 -13.7003 -13.6424 -13.6424 -13.3232 -13.3232 -13.3232
   -13.3160 -13.3160  -2.6963   7.3395   8.0669   8.0669

          k =-0.2500 0.2500-0.2500 (  3846 PWs)   bands (ev):

   -13.7268 -13.7268 -13.6873 -13.6013 -13.6013 -13.3699 -13.3699 -13.3401
   -13.2776 -13.2776  -2.1045   3.9222   7.3037   7.3037

          k = 0.5000-0.5000 0.5000 (  3828 PWs)   bands (ev):

   -13.7375 -13.7375 -13.6732 -13.5800 -13.5800 -13.3864 -13.3864 -13.3578
   -13.2655 -13.2655  -1.0588   1.6400   6.8463   6.8463

          k = 0.0000 0.5000 0.0000 (  3895 PWs)   bands (ev):

   -13.7288 -13.7288 -13.7048 -13.5938 -13.5435 -13.4566 -13.3629 -13.2939
   -13.2821 -13.2821  -1.8875   3.8073   6.3599   6.3599

          k = 0.7500-0.2500 0.7500 (  3874 PWs)   bands (ev):

   -13.7675 -13.7470 -13.6408 -13.5427 -13.5132 -13.4847 -13.4177 -13.3683
   -13.2537 -13.2326  -0.7107   1.6767   5.0261   6.0427

          k = 0.5000 0.0000 0.5000 (  3875 PWs)   bands (ev):

   -13.7609 -13.7490 -13.6345 -13.5772 -13.5394 -13.4314 -13.3994 -13.3862
   -13.2500 -13.2429  -1.1979   2.3689   4.9370   6.7778

          k = 0.0000-1.0000 0.0000 (  3892 PWs)   bands (ev):

   -13.7529 -13.7529 -13.6166 -13.6166 -13.4774 -13.4774 -13.3913 -13.3913
   -13.2446 -13.2446   0.4213   0.4213   5.4883   5.4883

          k =-0.5000-1.0000 0.0000 (  3852 PWs)   bands (ev):

   -13.7710 -13.7710 -13.5574 -13.5574 -13.4863 -13.4863 -13.4406 -13.4406
   -13.2270 -13.2270   0.4813   0.4813   4.9067   4.9067

     highest occupied level (ev):     8.0669

!    total energy              =    -325.61261275 Ry
     estimated scf accuracy    <       0.00000010 Ry

     The total energy is the sum of the following terms:
     one-electron contribution =    -150.97587578 Ry
     hartree contribution      =      93.25686737 Ry
     xc contribution           =     -95.23417396 Ry
     ewald contribution        =    -172.65943037 Ry

     convergence has been achieved in   6 iterations

     Writing all to output data dir ./alpha-sn-scf/alphatin.save/ :
     XML data file, charge density, pseudopotentials, collected wavefunctions

     init_run     :      0.43s CPU      0.48s WALL (       1 calls)
     electrons    :      0.19s CPU      0.23s WALL (       1 calls)

     Called by init_run:
     wfcinit      :      0.00s CPU      0.02s WALL (       1 calls)
     potinit      :      0.01s CPU      0.02s WALL (       1 calls)
     hinit0       :      0.38s CPU      0.39s WALL (       1 calls)

     Called by electrons:
     c_bands      :      0.09s CPU      0.09s WALL (       7 calls)
     sum_band     :      0.03s CPU      0.05s WALL (       7 calls)
     v_of_rho     :      0.04s CPU      0.04s WALL (       7 calls)
     newd         :      0.02s CPU      0.03s WALL (       7 calls)
     mix_rho      :      0.00s CPU      0.01s WALL (       7 calls)

     Called by c_bands:
     init_us_2    :      0.00s CPU      0.00s WALL (      15 calls)
     cegterg      :      0.08s CPU      0.08s WALL (       7 calls)

     Called by *egterg:
     cdiaghg      :      0.01s CPU      0.01s WALL (      27 calls)
     h_psi        :      0.06s CPU      0.07s WALL (      29 calls)
     s_psi        :      0.00s CPU      0.00s WALL (      29 calls)
     g_psi        :      0.00s CPU      0.00s WALL (      21 calls)

     Called by h_psi:
     h_psi:calbec :      0.00s CPU      0.00s WALL (      29 calls)
     vloc_psi     :      0.05s CPU      0.06s WALL (      29 calls)
     add_vuspsi   :      0.00s CPU      0.00s WALL (      29 calls)

     General routines
     calbec       :      0.00s CPU      0.00s WALL (      36 calls)
     fft          :      0.36s CPU      0.37s WALL (      78 calls)
     ffts         :      0.00s CPU      0.00s WALL (       7 calls)
     fftw         :      0.06s CPU      0.06s WALL (     632 calls)

     Parallel routines

     PWSCF        :      0.88s CPU      1.12s WALL


   This run was terminated on:  16:10:58   5Feb2026            

=------------------------------------------------------------------------------=
   JOB DONE.
=------------------------------------------------------------------------------=
