
     Program PWSCF v.7.3.1 starts on  5Feb2026 at 16:14:54 

     This program is part of the open-source Quantum ESPRESSO suite
     for quantum simulation of materials; please cite
         "P. Giannozzi et al., J. Phys.:Condens. Matter 21 395502 (2009);
         "P. Giannozzi et al., J. Phys.:Condens. Matter 29 465901 (2017);
         "P. Giannozzi et al., J. Chem. Phys. 152 154105 (2020);
          URL http://www.quantum-espresso.org", 
     in publications or presentations arising from this work. More details at
     http://www.quantum-espresso.org/quote

     Parallel version (MPI), running on   128 processors

     MPI processes distributed on     1 nodes
     241319 MiB available memory on the printing compute node when the environment starts

     Waiting for input...
     Reading input from standard input
     Message from routine read_cards :
     DEPRECATED: no units specified in ATOMIC_POSITIONS card
     Message from routine read_cards :
     ATOMIC_POSITIONS: units set to alat

     Current dimensions of program PWSCF are:
     Max number of different atomic species (ntypx) = 10
     Max number of k-points (npk) =  40000
     Max angular momentum in pseudopotentials (lmaxx) =  4

     K-points division:     npool     =       8
     R & G space division:  proc/nbgrp/npool/nimage =      16
     Subspace diagonalization in iterative solution of the eigenvalue problem:
     a serial algorithm will be used


     Parallelization info
     --------------------
     sticks:   dense  smooth     PW     G-vecs:    dense   smooth      PW
     Min         109     109     31                 3027     3027     458
     Max         110     110     32                 3030     3030     462
     Sum        1759    1759    499                48455    48455    7343

     Using Slab Decomposition



     bravais-lattice index     =            2
     lattice parameter (alat)  =      12.2300  a.u.
     unit-cell volume          =     457.3191 (a.u.)^3
     number of atoms/cell      =            2
     number of atomic types    =            1
     number of electrons       =        28.00
     number of Kohn-Sham states=           14
     kinetic-energy cutoff     =      85.0000  Ry
     charge density cutoff     =     340.0000  Ry
     scf convergence threshold =      1.0E-07
     mixing beta               =       0.7000
     number of iterations used =            8  plain     mixing
     Exchange-correlation=  SLA  PW   GGX  GGC
                           (   1   4   2   2   0   0   0)

     celldm(1)=  12.230000  celldm(2)=   0.000000  celldm(3)=   0.000000
     celldm(4)=   0.000000  celldm(5)=   0.000000  celldm(6)=   0.000000

     crystal axes: (cart. coord. in units of alat)
               a(1) = (  -0.500000   0.000000   0.500000 )  
               a(2) = (   0.000000   0.500000   0.500000 )  
               a(3) = (  -0.500000   0.500000   0.000000 )  

     reciprocal axes: (cart. coord. in units 2 pi/alat)
               b(1) = ( -1.000000 -1.000000  1.000000 )  
               b(2) = (  1.000000  1.000000  1.000000 )  
               b(3) = ( -1.000000  1.000000 -1.000000 )  


     PseudoPot. # 1 for Sn read from file:
     ./Sn.pw91-n-van.UPF
     MD5 check sum: a38d2a872edd1a4efd76c0a1a38f7031
     Pseudo is Ultrasoft + core correction, Zval = 14.0
     Generated by new atomic code, or converted to UPF format
     Using radial grid of  891 points,  6 beta functions with: 
                l(1) =   0
                l(2) =   0
                l(3) =   1
                l(4) =   1
                l(5) =   2
                l(6) =   2
     Q(r) pseudized with  8 coefficients,  rinner =    1.100   1.100   1.100
                                                       1.100   1.100

     atomic species   valence    mass     pseudopotential
     Sn               14.00   118.70000     Sn( 1.00)

     48 Sym. Ops., with inversion, found (24 have fractional translation)



   Cartesian axes

     site n.     atom                  positions (alat units)
         1        Sn     tau(   1) = (   0.0000000   0.0000000   0.0000000  )
         2        Sn     tau(   2) = (   0.2500000   0.2500000   0.2500000  )

     number of k points=     8
                       cart. coord. in units 2pi/alat
        k(    1) = (   0.0000000   0.0000000   0.0000000), wk =   0.0312500
        k(    2) = (  -0.2500000   0.2500000  -0.2500000), wk =   0.2500000
        k(    3) = (   0.5000000  -0.5000000   0.5000000), wk =   0.1250000
        k(    4) = (   0.0000000   0.5000000   0.0000000), wk =   0.1875000
        k(    5) = (   0.7500000  -0.2500000   0.7500000), wk =   0.7500000
        k(    6) = (   0.5000000   0.0000000   0.5000000), wk =   0.3750000
        k(    7) = (   0.0000000  -1.0000000   0.0000000), wk =   0.0937500
        k(    8) = (  -0.5000000  -1.0000000   0.0000000), wk =   0.1875000

     Dense  grid:    48455 G-vectors     FFT dimensions: (  60,  60,  60)

     Estimated max dynamical RAM per process >       5.14 MB

     Estimated total dynamical RAM >     575.20 MB

     Initial potential from superposition of free atoms

     starting charge      27.9964, renormalised to      28.0000
     Starting wfcs are   18 randomized atomic wfcs

     total cpu time spent up to now is        0.9 secs

     per-process dynamical memory:    12.1 Mb

     Self-consistent Calculation

     iteration #  1     ecut=    85.00 Ry     beta= 0.70
     Davidson diagonalization with overlap
     ethr =  1.00E-02,  avg # of iterations =  1.5

     Threshold (ethr) on eigenvalues was too large:
     Diagonalizing with lowered threshold

     Davidson diagonalization with overlap
     ethr =  8.43E-05,  avg # of iterations =  2.1

     total cpu time spent up to now is        1.0 secs

     total energy              =    -325.61329353 Ry
     estimated scf accuracy    <       0.02867552 Ry

     iteration #  2     ecut=    85.00 Ry     beta= 0.70
     Davidson diagonalization with overlap
     ethr =  1.02E-04,  avg # of iterations =  1.0

     negative rho (up, down):  8.100E-07 0.000E+00

     total cpu time spent up to now is        1.0 secs

     total energy              =    -325.61428055 Ry
     estimated scf accuracy    <       0.00162631 Ry

     iteration #  3     ecut=    85.00 Ry     beta= 0.70
     Davidson diagonalization with overlap
     ethr =  5.81E-06,  avg # of iterations =  2.1

     negative rho (up, down):  4.846E-06 0.000E+00

     total cpu time spent up to now is        1.1 secs

     total energy              =    -325.61441758 Ry
     estimated scf accuracy    <       0.00003834 Ry

     iteration #  4     ecut=    85.00 Ry     beta= 0.70
     Davidson diagonalization with overlap
     ethr =  1.37E-07,  avg # of iterations =  3.9

     negative rho (up, down):  7.294E-06 0.000E+00

     total cpu time spent up to now is        1.1 secs

     total energy              =    -325.61443016 Ry
     estimated scf accuracy    <       0.00000326 Ry

     iteration #  5     ecut=    85.00 Ry     beta= 0.70
     Davidson diagonalization with overlap
     ethr =  1.16E-08,  avg # of iterations =  3.4

     negative rho (up, down):  7.067E-06 0.000E+00

     total cpu time spent up to now is        1.2 secs

     total energy              =    -325.61443077 Ry
     estimated scf accuracy    <       0.00000031 Ry

     iteration #  6     ecut=    85.00 Ry     beta= 0.70
     Davidson diagonalization with overlap
     ethr =  1.12E-09,  avg # of iterations =  2.1

     negative rho (up, down):  7.194E-06 0.000E+00

     total cpu time spent up to now is        1.2 secs

     End of self-consistent calculation

          k = 0.0000 0.0000 0.0000 (  5985 PWs)   bands (ev):

   -13.7034 -13.7034 -13.7034 -13.6461 -13.6461 -13.3265 -13.3265 -13.3265
   -13.3199 -13.3199  -2.6990   7.3373   8.0648   8.0648

          k =-0.2500 0.2500-0.2500 (  6057 PWs)   bands (ev):

   -13.7299 -13.7299 -13.6903 -13.6053 -13.6053 -13.3739 -13.3739 -13.3435
   -13.2812 -13.2812  -2.1070   3.9197   7.3016   7.3016

          k = 0.5000-0.5000 0.5000 (  6062 PWs)   bands (ev):

   -13.7406 -13.7406 -13.6762 -13.5841 -13.5841 -13.3905 -13.3905 -13.3612
   -13.2690 -13.2690  -1.0609   1.6368   6.8443   6.8443

          k = 0.0000 0.5000 0.0000 (  6030 PWs)   bands (ev):

   -13.7316 -13.7316 -13.7082 -13.5975 -13.5471 -13.4602 -13.3667 -13.2976
   -13.2853 -13.2853  -1.8901   3.8054   6.3576   6.3576

          k = 0.7500-0.2500 0.7500 (  6053 PWs)   bands (ev):

   -13.7706 -13.7500 -13.6441 -13.5466 -13.5168 -13.4883 -13.4216 -13.3720
   -13.2571 -13.2360  -0.7129   1.6745   5.0220   6.0404

          k = 0.5000 0.0000 0.5000 (  6065 PWs)   bands (ev):

   -13.7640 -13.7521 -13.6375 -13.5812 -13.5433 -13.4353 -13.4028 -13.3901
   -13.2535 -13.2463  -1.2002   2.3668   4.9327   6.7757

          k = 0.0000-1.0000 0.0000 (  6074 PWs)   bands (ev):

   -13.7559 -13.7559 -13.6200 -13.6200 -13.4813 -13.4813 -13.3951 -13.3951
   -13.2479 -13.2479   0.4192   0.4192   5.4860   5.4860

          k =-0.5000-1.0000 0.0000 (  6032 PWs)   bands (ev):

   -13.7740 -13.7740 -13.5609 -13.5609 -13.4902 -13.4902 -13.4444 -13.4444
   -13.2305 -13.2305   0.4794   0.4794   4.9026   4.9026

     highest occupied level (ev):     8.0648

!    total energy              =    -325.61443081 Ry
     estimated scf accuracy    <       0.00000007 Ry

     The total energy is the sum of the following terms:
     one-electron contribution =    -150.97475001 Ry
     hartree contribution      =      93.25267407 Ry
     xc contribution           =     -95.23292452 Ry
     ewald contribution        =    -172.65943036 Ry

     convergence has been achieved in   6 iterations

     Writing all to output data dir ./alpha-sn-scf/alphatin.save/ :
     XML data file, charge density, pseudopotentials, collected wavefunctions

     init_run     :      0.52s CPU      0.57s WALL (       1 calls)
     electrons    :      0.29s CPU      0.36s WALL (       1 calls)

     Called by init_run:
     wfcinit      :      0.01s CPU      0.02s WALL (       1 calls)
     potinit      :      0.02s CPU      0.04s WALL (       1 calls)
     hinit0       :      0.44s CPU      0.45s WALL (       1 calls)

     Called by electrons:
     c_bands      :      0.13s CPU      0.15s WALL (       7 calls)
     sum_band     :      0.05s CPU      0.07s WALL (       7 calls)
     v_of_rho     :      0.07s CPU      0.08s WALL (       7 calls)
     newd         :      0.02s CPU      0.03s WALL (       7 calls)
     mix_rho      :      0.01s CPU      0.01s WALL (       7 calls)

     Called by c_bands:
     init_us_2    :      0.00s CPU      0.00s WALL (      15 calls)
     cegterg      :      0.12s CPU      0.13s WALL (       7 calls)

     Called by *egterg:
     cdiaghg      :      0.01s CPU      0.01s WALL (      27 calls)
     h_psi        :      0.11s CPU      0.12s WALL (      29 calls)
     s_psi        :      0.00s CPU      0.00s WALL (      29 calls)
     g_psi        :      0.00s CPU      0.00s WALL (      21 calls)

     Called by h_psi:
     h_psi:calbec :      0.00s CPU      0.01s WALL (      29 calls)
     vloc_psi     :      0.10s CPU      0.11s WALL (      29 calls)
     add_vuspsi   :      0.00s CPU      0.00s WALL (      29 calls)

     General routines
     calbec       :      0.00s CPU      0.01s WALL (      36 calls)
     fft          :      0.43s CPU      0.44s WALL (      78 calls)
     ffts         :      0.00s CPU      0.00s WALL (       7 calls)
     fftw         :      0.10s CPU      0.11s WALL (     614 calls)

     Parallel routines

     PWSCF        :      1.05s CPU      1.31s WALL


   This run was terminated on:  16:14:55   5Feb2026            

=------------------------------------------------------------------------------=
   JOB DONE.
=------------------------------------------------------------------------------=
