
     Program PWSCF v.7.3.1 starts on  5Feb2026 at 16:20:16 

     This program is part of the open-source Quantum ESPRESSO suite
     for quantum simulation of materials; please cite
         "P. Giannozzi et al., J. Phys.:Condens. Matter 21 395502 (2009);
         "P. Giannozzi et al., J. Phys.:Condens. Matter 29 465901 (2017);
         "P. Giannozzi et al., J. Chem. Phys. 152 154105 (2020);
          URL http://www.quantum-espresso.org", 
     in publications or presentations arising from this work. More details at
     http://www.quantum-espresso.org/quote

     Parallel version (MPI), running on   128 processors

     MPI processes distributed on     1 nodes
     241383 MiB available memory on the printing compute node when the environment starts

     Waiting for input...
     Reading input from standard input
     Message from routine read_cards :
     DEPRECATED: no units specified in ATOMIC_POSITIONS card
     Message from routine read_cards :
     ATOMIC_POSITIONS: units set to alat

     Current dimensions of program PWSCF are:
     Max number of different atomic species (ntypx) = 10
     Max number of k-points (npk) =  40000
     Max angular momentum in pseudopotentials (lmaxx) =  4

     K-points division:     npool     =       8
     R & G space division:  proc/nbgrp/npool/nimage =      16
     Subspace diagonalization in iterative solution of the eigenvalue problem:
     a serial algorithm will be used


     Parallelization info
     --------------------
     sticks:   dense  smooth     PW     G-vecs:    dense   smooth      PW
     Min         148     148     41                 4769     4769     692
     Max         150     150     42                 4771     4771     696
     Sum        2383    2383    661                76321    76321   11113

     Using Slab Decomposition



     bravais-lattice index     =            2
     lattice parameter (alat)  =      12.2300  a.u.
     unit-cell volume          =     457.3191 (a.u.)^3
     number of atoms/cell      =            2
     number of atomic types    =            1
     number of electrons       =        28.00
     number of Kohn-Sham states=           14
     kinetic-energy cutoff     =     115.0000  Ry
     charge density cutoff     =     460.0000  Ry
     scf convergence threshold =      1.0E-07
     mixing beta               =       0.7000
     number of iterations used =            8  plain     mixing
     Exchange-correlation=  SLA  PW   GGX  GGC
                           (   1   4   2   2   0   0   0)

     celldm(1)=  12.230000  celldm(2)=   0.000000  celldm(3)=   0.000000
     celldm(4)=   0.000000  celldm(5)=   0.000000  celldm(6)=   0.000000

     crystal axes: (cart. coord. in units of alat)
               a(1) = (  -0.500000   0.000000   0.500000 )  
               a(2) = (   0.000000   0.500000   0.500000 )  
               a(3) = (  -0.500000   0.500000   0.000000 )  

     reciprocal axes: (cart. coord. in units 2 pi/alat)
               b(1) = ( -1.000000 -1.000000  1.000000 )  
               b(2) = (  1.000000  1.000000  1.000000 )  
               b(3) = ( -1.000000  1.000000 -1.000000 )  


     PseudoPot. # 1 for Sn read from file:
     ./Sn.pw91-n-van.UPF
     MD5 check sum: a38d2a872edd1a4efd76c0a1a38f7031
     Pseudo is Ultrasoft + core correction, Zval = 14.0
     Generated by new atomic code, or converted to UPF format
     Using radial grid of  891 points,  6 beta functions with: 
                l(1) =   0
                l(2) =   0
                l(3) =   1
                l(4) =   1
                l(5) =   2
                l(6) =   2
     Q(r) pseudized with  8 coefficients,  rinner =    1.100   1.100   1.100
                                                       1.100   1.100

     atomic species   valence    mass     pseudopotential
     Sn               14.00   118.70000     Sn( 1.00)

     48 Sym. Ops., with inversion, found (24 have fractional translation)



   Cartesian axes

     site n.     atom                  positions (alat units)
         1        Sn     tau(   1) = (   0.0000000   0.0000000   0.0000000  )
         2        Sn     tau(   2) = (   0.2500000   0.2500000   0.2500000  )

     number of k points=     8
                       cart. coord. in units 2pi/alat
        k(    1) = (   0.0000000   0.0000000   0.0000000), wk =   0.0312500
        k(    2) = (  -0.2500000   0.2500000  -0.2500000), wk =   0.2500000
        k(    3) = (   0.5000000  -0.5000000   0.5000000), wk =   0.1250000
        k(    4) = (   0.0000000   0.5000000   0.0000000), wk =   0.1875000
        k(    5) = (   0.7500000  -0.2500000   0.7500000), wk =   0.7500000
        k(    6) = (   0.5000000   0.0000000   0.5000000), wk =   0.3750000
        k(    7) = (   0.0000000  -1.0000000   0.0000000), wk =   0.0937500
        k(    8) = (  -0.5000000  -1.0000000   0.0000000), wk =   0.1875000

     Dense  grid:    76321 G-vectors     FFT dimensions: (  60,  60,  60)

     Estimated max dynamical RAM per process >       6.92 MB

     Estimated total dynamical RAM >     755.36 MB

     Initial potential from superposition of free atoms

     starting charge      27.9964, renormalised to      28.0000
     Starting wfcs are   18 randomized atomic wfcs

     total cpu time spent up to now is        0.9 secs

     per-process dynamical memory:    14.4 Mb

     Self-consistent Calculation

     iteration #  1     ecut=   115.00 Ry     beta= 0.70
     Davidson diagonalization with overlap
     ethr =  1.00E-02,  avg # of iterations =  1.6

     Threshold (ethr) on eigenvalues was too large:
     Diagonalizing with lowered threshold

     Davidson diagonalization with overlap
     ethr =  8.25E-05,  avg # of iterations =  2.4

     total cpu time spent up to now is        1.0 secs

     total energy              =    -325.61616115 Ry
     estimated scf accuracy    <       0.02912198 Ry

     iteration #  2     ecut=   115.00 Ry     beta= 0.70
     Davidson diagonalization with overlap
     ethr =  1.04E-04,  avg # of iterations =  1.0

     total cpu time spent up to now is        1.1 secs

     total energy              =    -325.61737552 Ry
     estimated scf accuracy    <       0.00152482 Ry

     iteration #  3     ecut=   115.00 Ry     beta= 0.70
     Davidson diagonalization with overlap
     ethr =  5.45E-06,  avg # of iterations =  2.2

     total cpu time spent up to now is        1.1 secs

     total energy              =    -325.61750599 Ry
     estimated scf accuracy    <       0.00003398 Ry

     iteration #  4     ecut=   115.00 Ry     beta= 0.70
     Davidson diagonalization with overlap
     ethr =  1.21E-07,  avg # of iterations =  3.9

     negative rho (up, down):  4.327E-07 0.000E+00

     total cpu time spent up to now is        1.2 secs

     total energy              =    -325.61751562 Ry
     estimated scf accuracy    <       0.00000274 Ry

     iteration #  5     ecut=   115.00 Ry     beta= 0.70
     Davidson diagonalization with overlap
     ethr =  9.80E-09,  avg # of iterations =  3.6

     negative rho (up, down):  2.939E-07 0.000E+00

     total cpu time spent up to now is        1.2 secs

     total energy              =    -325.61751609 Ry
     estimated scf accuracy    <       0.00000018 Ry

     iteration #  6     ecut=   115.00 Ry     beta= 0.70
     Davidson diagonalization with overlap
     ethr =  6.46E-10,  avg # of iterations =  3.1

     negative rho (up, down):  4.010E-07 0.000E+00

     total cpu time spent up to now is        1.3 secs

     End of self-consistent calculation

          k = 0.0000 0.0000 0.0000 (  9505 PWs)   bands (ev):

   -13.7071 -13.7071 -13.7071 -13.6481 -13.6481 -13.3306 -13.3306 -13.3306
   -13.3219 -13.3219  -2.7005   7.3360   8.0636   8.0636

          k =-0.2500 0.2500-0.2500 (  9549 PWs)   bands (ev):

   -13.7336 -13.7336 -13.6939 -13.6074 -13.6074 -13.3763 -13.3763 -13.3475
   -13.2847 -13.2847  -2.1085   3.9183   7.3005   7.3005

          k = 0.5000-0.5000 0.5000 (  9558 PWs)   bands (ev):

   -13.7442 -13.7442 -13.6802 -13.5863 -13.5863 -13.3926 -13.3926 -13.3652
   -13.2730 -13.2730  -1.0621   1.6349   6.8433   6.8433

          k = 0.0000 0.5000 0.0000 (  9493 PWs)   bands (ev):

   -13.7353 -13.7353 -13.7113 -13.5994 -13.5496 -13.4632 -13.3687 -13.3003
   -13.2893 -13.2893  -1.8915   3.8043   6.3563   6.3563

          k = 0.7500-0.2500 0.7500 (  9531 PWs)   bands (ev):

   -13.7742 -13.7536 -13.6475 -13.5487 -13.5194 -13.4912 -13.4236 -13.3749
   -13.2610 -13.2399  -0.7141   1.6732   5.0197   6.0391

          k = 0.5000 0.0000 0.5000 (  9523 PWs)   bands (ev):

   -13.7676 -13.7557 -13.6413 -13.5832 -13.5455 -13.4376 -13.4064 -13.3923
   -13.2571 -13.2502  -1.2015   2.3656   4.9301   6.7746

          k = 0.0000-1.0000 0.0000 (  9528 PWs)   bands (ev):

   -13.7597 -13.7597 -13.6231 -13.6231 -13.4832 -13.4832 -13.3977 -13.3977
   -13.2519 -13.2519   0.4180   0.4180   5.4846   5.4846

          k =-0.5000-1.0000 0.0000 (  9540 PWs)   bands (ev):

   -13.7777 -13.7777 -13.5641 -13.5641 -13.4924 -13.4924 -13.4471 -13.4471
   -13.2343 -13.2343   0.4783   0.4783   4.9003   4.9003

     highest occupied level (ev):     8.0636

!    total energy              =    -325.61751612 Ry
     estimated scf accuracy    <       0.00000005 Ry

     The total energy is the sum of the following terms:
     one-electron contribution =    -150.97648208 Ry
     hartree contribution      =      93.25078000 Ry
     xc contribution           =     -95.23238368 Ry
     ewald contribution        =    -172.65943036 Ry

     convergence has been achieved in   6 iterations

     Writing all to output data dir ./alpha-sn-scf/alphatin.save/ :
     XML data file, charge density, pseudopotentials, collected wavefunctions

     init_run     :      0.54s CPU      0.60s WALL (       1 calls)
     electrons    :      0.37s CPU      0.43s WALL (       1 calls)

     Called by init_run:
     wfcinit      :      0.01s CPU      0.02s WALL (       1 calls)
     potinit      :      0.02s CPU      0.04s WALL (       1 calls)
     hinit0       :      0.45s CPU      0.47s WALL (       1 calls)

     Called by electrons:
     c_bands      :      0.15s CPU      0.17s WALL (       7 calls)
     sum_band     :      0.08s CPU      0.09s WALL (       7 calls)
     v_of_rho     :      0.09s CPU      0.10s WALL (       7 calls)
     newd         :      0.03s CPU      0.03s WALL (       7 calls)
     mix_rho      :      0.01s CPU      0.01s WALL (       7 calls)

     Called by c_bands:
     init_us_2    :      0.00s CPU      0.01s WALL (      15 calls)
     cegterg      :      0.14s CPU      0.15s WALL (       7 calls)

     Called by *egterg:
     cdiaghg      :      0.01s CPU      0.01s WALL (      28 calls)
     h_psi        :      0.13s CPU      0.14s WALL (      30 calls)
     s_psi        :      0.00s CPU      0.00s WALL (      30 calls)
     g_psi        :      0.00s CPU      0.00s WALL (      22 calls)

     Called by h_psi:
     h_psi:calbec :      0.01s CPU      0.01s WALL (      30 calls)
     vloc_psi     :      0.12s CPU      0.12s WALL (      30 calls)
     add_vuspsi   :      0.00s CPU      0.00s WALL (      30 calls)

     General routines
     calbec       :      0.01s CPU      0.01s WALL (      37 calls)
     fft          :      0.46s CPU      0.47s WALL (      78 calls)
     ffts         :      0.01s CPU      0.01s WALL (       7 calls)
     fftw         :      0.12s CPU      0.13s WALL (     626 calls)

     Parallel routines

     PWSCF        :      1.14s CPU      1.43s WALL


   This run was terminated on:  16:20:18   5Feb2026            

=------------------------------------------------------------------------------=
   JOB DONE.
=------------------------------------------------------------------------------=
