
     Program PWSCF v.7.3.1 starts on  5Feb2026 at 16:28:29 

     This program is part of the open-source Quantum ESPRESSO suite
     for quantum simulation of materials; please cite
         "P. Giannozzi et al., J. Phys.:Condens. Matter 21 395502 (2009);
         "P. Giannozzi et al., J. Phys.:Condens. Matter 29 465901 (2017);
         "P. Giannozzi et al., J. Chem. Phys. 152 154105 (2020);
          URL http://www.quantum-espresso.org", 
     in publications or presentations arising from this work. More details at
     http://www.quantum-espresso.org/quote

     Parallel version (MPI), running on   128 processors

     MPI processes distributed on     1 nodes
     241235 MiB available memory on the printing compute node when the environment starts

     Waiting for input...
     Reading input from standard input
     Message from routine read_cards :
     DEPRECATED: no units specified in ATOMIC_POSITIONS card
     Message from routine read_cards :
     ATOMIC_POSITIONS: units set to alat

     Current dimensions of program PWSCF are:
     Max number of different atomic species (ntypx) = 10
     Max number of k-points (npk) =  40000
     Max angular momentum in pseudopotentials (lmaxx) =  4

     K-points division:     npool     =       4
     R & G space division:  proc/nbgrp/npool/nimage =      32
     Subspace diagonalization in iterative solution of the eigenvalue problem:
     a serial algorithm will be used


     Parallelization info
     --------------------
     sticks:   dense  smooth     PW     G-vecs:    dense   smooth      PW
     Min         102     102     27                 3864     3864     548
     Max         105     105     28                 3867     3867     551
     Sum        3283    3283    889               123717   123717   17573

     Using Slab Decomposition



     bravais-lattice index     =            2
     lattice parameter (alat)  =      12.2300  a.u.
     unit-cell volume          =     457.3191 (a.u.)^3
     number of atoms/cell      =            2
     number of atomic types    =            1
     number of electrons       =        28.00
     number of Kohn-Sham states=           14
     kinetic-energy cutoff     =     159.0000  Ry
     charge density cutoff     =     636.0000  Ry
     scf convergence threshold =      1.0E-07
     mixing beta               =       0.7000
     number of iterations used =            8  plain     mixing
     Exchange-correlation=  SLA  PW   GGX  GGC
                           (   1   4   2   2   0   0   0)

     celldm(1)=  12.230000  celldm(2)=   0.000000  celldm(3)=   0.000000
     celldm(4)=   0.000000  celldm(5)=   0.000000  celldm(6)=   0.000000

     crystal axes: (cart. coord. in units of alat)
               a(1) = (  -0.500000   0.000000   0.500000 )  
               a(2) = (   0.000000   0.500000   0.500000 )  
               a(3) = (  -0.500000   0.500000   0.000000 )  

     reciprocal axes: (cart. coord. in units 2 pi/alat)
               b(1) = ( -1.000000 -1.000000  1.000000 )  
               b(2) = (  1.000000  1.000000  1.000000 )  
               b(3) = ( -1.000000  1.000000 -1.000000 )  


     PseudoPot. # 1 for Sn read from file:
     ./Sn.pw91-n-van.UPF
     MD5 check sum: a38d2a872edd1a4efd76c0a1a38f7031
     Pseudo is Ultrasoft + core correction, Zval = 14.0
     Generated by new atomic code, or converted to UPF format
     Using radial grid of  891 points,  6 beta functions with: 
                l(1) =   0
                l(2) =   0
                l(3) =   1
                l(4) =   1
                l(5) =   2
                l(6) =   2
     Q(r) pseudized with  8 coefficients,  rinner =    1.100   1.100   1.100
                                                       1.100   1.100

     atomic species   valence    mass     pseudopotential
     Sn               14.00   118.70000     Sn( 1.00)

     48 Sym. Ops., with inversion, found (24 have fractional translation)



   Cartesian axes

     site n.     atom                  positions (alat units)
         1        Sn     tau(   1) = (   0.0000000   0.0000000   0.0000000  )
         2        Sn     tau(   2) = (   0.2500000   0.2500000   0.2500000  )

     number of k points=     8
                       cart. coord. in units 2pi/alat
        k(    1) = (   0.0000000   0.0000000   0.0000000), wk =   0.0312500
        k(    2) = (  -0.2500000   0.2500000  -0.2500000), wk =   0.2500000
        k(    3) = (   0.5000000  -0.5000000   0.5000000), wk =   0.1250000
        k(    4) = (   0.0000000   0.5000000   0.0000000), wk =   0.1875000
        k(    5) = (   0.7500000  -0.2500000   0.7500000), wk =   0.7500000
        k(    6) = (   0.5000000   0.0000000   0.5000000), wk =   0.3750000
        k(    7) = (   0.0000000  -1.0000000   0.0000000), wk =   0.0937500
        k(    8) = (  -0.5000000  -1.0000000   0.0000000), wk =   0.1875000

     Dense  grid:   123717 G-vectors     FFT dimensions: (  72,  72,  72)

     Estimated max dynamical RAM per process >       8.09 MB

     Estimated total dynamical RAM >     944.73 MB

     Initial potential from superposition of free atoms

     starting charge      27.9964, renormalised to      28.0000
     Starting wfcs are   18 randomized atomic wfcs

     total cpu time spent up to now is        1.1 secs

     per-process dynamical memory:    14.7 Mb

     Self-consistent Calculation

     iteration #  1     ecut=   159.00 Ry     beta= 0.70
     Davidson diagonalization with overlap
     ethr =  1.00E-02,  avg # of iterations =  2.0

     Threshold (ethr) on eigenvalues was too large:
     Diagonalizing with lowered threshold

     Davidson diagonalization with overlap
     ethr =  9.02E-05,  avg # of iterations =  2.1

     total cpu time spent up to now is        1.3 secs

     total energy              =    -325.62338992 Ry
     estimated scf accuracy    <       0.02978375 Ry

     iteration #  2     ecut=   159.00 Ry     beta= 0.70
     Davidson diagonalization with overlap
     ethr =  1.06E-04,  avg # of iterations =  1.1

     total cpu time spent up to now is        1.3 secs

     total energy              =    -325.62668996 Ry
     estimated scf accuracy    <       0.00152944 Ry

     iteration #  3     ecut=   159.00 Ry     beta= 0.70
     Davidson diagonalization with overlap
     ethr =  5.46E-06,  avg # of iterations =  2.4

     negative rho (up, down):  1.263E-06 0.000E+00

     total cpu time spent up to now is        1.4 secs

     total energy              =    -325.62691179 Ry
     estimated scf accuracy    <       0.00005061 Ry

     iteration #  4     ecut=   159.00 Ry     beta= 0.70
     Davidson diagonalization with overlap
     ethr =  1.81E-07,  avg # of iterations =  2.9

     negative rho (up, down):  2.717E-06 0.000E+00

     total cpu time spent up to now is        1.5 secs

     total energy              =    -325.62692917 Ry
     estimated scf accuracy    <       0.00000379 Ry

     iteration #  5     ecut=   159.00 Ry     beta= 0.70
     Davidson diagonalization with overlap
     ethr =  1.35E-08,  avg # of iterations =  3.8

     negative rho (up, down):  2.633E-06 0.000E+00

     total cpu time spent up to now is        1.6 secs

     total energy              =    -325.62692952 Ry
     estimated scf accuracy    <       0.00000053 Ry

     iteration #  6     ecut=   159.00 Ry     beta= 0.70
     Davidson diagonalization with overlap
     ethr =  1.91E-09,  avg # of iterations =  2.0

     negative rho (up, down):  2.635E-06 0.000E+00

     total cpu time spent up to now is        1.7 secs

     End of self-consistent calculation

          k = 0.0000 0.0000 0.0000 ( 15473 PWs)   bands (ev):

   -13.7126 -13.7126 -13.7126 -13.6535 -13.6535 -13.3360 -13.3360 -13.3360
   -13.3274 -13.3274  -2.7009   7.3360   8.0629   8.0629

          k =-0.2500 0.2500-0.2500 ( 15520 PWs)   bands (ev):

   -13.7389 -13.7389 -13.6994 -13.6127 -13.6127 -13.3817 -13.3817 -13.3529
   -13.2902 -13.2902  -2.1089   3.9179   7.2999   7.2999

          k = 0.5000-0.5000 0.5000 ( 15406 PWs)   bands (ev):

   -13.7496 -13.7496 -13.6854 -13.5915 -13.5915 -13.3980 -13.3980 -13.3705
   -13.2784 -13.2784  -1.0625   1.6346   6.8427   6.8427

          k = 0.0000 0.5000 0.0000 ( 15545 PWs)   bands (ev):

   -13.7408 -13.7408 -13.7167 -13.6048 -13.5551 -13.4686 -13.3743 -13.3059
   -13.2948 -13.2948  -1.8919   3.8039   6.3557   6.3557

          k = 0.7500-0.2500 0.7500 ( 15492 PWs)   bands (ev):

   -13.7795 -13.7590 -13.6528 -13.5540 -13.5248 -13.4966 -13.4291 -13.3804
   -13.2664 -13.2453  -0.7145   1.6728   5.0193   6.0386

          k = 0.5000 0.0000 0.5000 ( 15481 PWs)   bands (ev):

   -13.7729 -13.7610 -13.6466 -13.5885 -13.5508 -13.4430 -13.4119 -13.3977
   -13.2626 -13.2556  -1.2019   2.3652   4.9298   6.7740

          k = 0.0000-1.0000 0.0000 ( 15540 PWs)   bands (ev):

   -13.7649 -13.7649 -13.6285 -13.6285 -13.4886 -13.4886 -13.4032 -13.4032
   -13.2573 -13.2573   0.4175   0.4175   5.4841   5.4841

          k =-0.5000-1.0000 0.0000 ( 15448 PWs)   bands (ev):

   -13.7830 -13.7830 -13.5695 -13.5695 -13.4978 -13.4978 -13.4524 -13.4524
   -13.2398 -13.2398   0.4778   0.4778   4.8999   4.8999

     highest occupied level (ev):     8.0629

!    total energy              =    -325.62692958 Ry
     estimated scf accuracy    <          6.7E-09 Ry

     The total energy is the sum of the following terms:
     one-electron contribution =    -150.99027578 Ry
     hartree contribution      =      93.25642313 Ry
     xc contribution           =     -95.23364656 Ry
     ewald contribution        =    -172.65943036 Ry

     convergence has been achieved in   6 iterations

     Writing all to output data dir ./alpha-sn-scf/alphatin.save/ :
     XML data file, charge density, pseudopotentials, collected wavefunctions

     init_run     :      0.71s CPU      0.79s WALL (       1 calls)
     electrons    :      0.56s CPU      0.66s WALL (       1 calls)

     Called by init_run:
     wfcinit      :      0.03s CPU      0.04s WALL (       1 calls)
     potinit      :      0.02s CPU      0.04s WALL (       1 calls)
     hinit0       :      0.60s CPU      0.60s WALL (       1 calls)

     Called by electrons:
     c_bands      :      0.30s CPU      0.33s WALL (       7 calls)
     sum_band     :      0.12s CPU      0.14s WALL (       7 calls)
     v_of_rho     :      0.08s CPU      0.10s WALL (       7 calls)
     newd         :      0.04s CPU      0.05s WALL (       7 calls)
     mix_rho      :      0.01s CPU      0.01s WALL (       7 calls)

     Called by c_bands:
     init_us_2    :      0.01s CPU      0.01s WALL (      30 calls)
     cegterg      :      0.28s CPU      0.30s WALL (      14 calls)

     Called by *egterg:
     cdiaghg      :      0.02s CPU      0.02s WALL (      52 calls)
     h_psi        :      0.26s CPU      0.29s WALL (      56 calls)
     s_psi        :      0.00s CPU      0.00s WALL (      56 calls)
     g_psi        :      0.00s CPU      0.00s WALL (      40 calls)

     Called by h_psi:
     h_psi:calbec :      0.01s CPU      0.01s WALL (      56 calls)
     vloc_psi     :      0.25s CPU      0.27s WALL (      56 calls)
     add_vuspsi   :      0.00s CPU      0.01s WALL (      56 calls)

     General routines
     calbec       :      0.01s CPU      0.01s WALL (      70 calls)
     fft          :      0.59s CPU      0.60s WALL (      78 calls)
     ffts         :      0.00s CPU      0.00s WALL (       7 calls)
     fftw         :      0.27s CPU      0.28s WALL (    1206 calls)

     Parallel routines

     PWSCF        :      1.50s CPU      1.86s WALL


   This run was terminated on:  16:28:30   5Feb2026            

=------------------------------------------------------------------------------=
   JOB DONE.
=------------------------------------------------------------------------------=
