
     Program PWSCF v.7.3.1 starts on  5Feb2026 at 16:21:24 

     This program is part of the open-source Quantum ESPRESSO suite
     for quantum simulation of materials; please cite
         "P. Giannozzi et al., J. Phys.:Condens. Matter 21 395502 (2009);
         "P. Giannozzi et al., J. Phys.:Condens. Matter 29 465901 (2017);
         "P. Giannozzi et al., J. Chem. Phys. 152 154105 (2020);
          URL http://www.quantum-espresso.org", 
     in publications or presentations arising from this work. More details at
     http://www.quantum-espresso.org/quote

     Parallel version (MPI), running on   128 processors

     MPI processes distributed on     1 nodes
     241265 MiB available memory on the printing compute node when the environment starts

     Waiting for input...
     Reading input from standard input
     Message from routine read_cards :
     DEPRECATED: no units specified in ATOMIC_POSITIONS card
     Message from routine read_cards :
     ATOMIC_POSITIONS: units set to alat

     Current dimensions of program PWSCF are:
     Max number of different atomic species (ntypx) = 10
     Max number of k-points (npk) =  40000
     Max angular momentum in pseudopotentials (lmaxx) =  4

     K-points division:     npool     =       4
     R & G space division:  proc/nbgrp/npool/nimage =      32
     Subspace diagonalization in iterative solution of the eigenvalue problem:
     a serial algorithm will be used


     Parallelization info
     --------------------
     sticks:   dense  smooth     PW     G-vecs:    dense   smooth      PW
     Min          78      78     21                 2569     2569     375
     Max          79      79     22                 2572     2572     379
     Sum        2503    2503    685                82243    82243   12039

     Using Slab Decomposition



     bravais-lattice index     =            2
     lattice parameter (alat)  =      12.2300  a.u.
     unit-cell volume          =     457.3191 (a.u.)^3
     number of atoms/cell      =            2
     number of atomic types    =            1
     number of electrons       =        28.00
     number of Kohn-Sham states=           14
     kinetic-energy cutoff     =     121.0000  Ry
     charge density cutoff     =     484.0000  Ry
     scf convergence threshold =      1.0E-07
     mixing beta               =       0.7000
     number of iterations used =            8  plain     mixing
     Exchange-correlation=  SLA  PW   GGX  GGC
                           (   1   4   2   2   0   0   0)

     celldm(1)=  12.230000  celldm(2)=   0.000000  celldm(3)=   0.000000
     celldm(4)=   0.000000  celldm(5)=   0.000000  celldm(6)=   0.000000

     crystal axes: (cart. coord. in units of alat)
               a(1) = (  -0.500000   0.000000   0.500000 )  
               a(2) = (   0.000000   0.500000   0.500000 )  
               a(3) = (  -0.500000   0.500000   0.000000 )  

     reciprocal axes: (cart. coord. in units 2 pi/alat)
               b(1) = ( -1.000000 -1.000000  1.000000 )  
               b(2) = (  1.000000  1.000000  1.000000 )  
               b(3) = ( -1.000000  1.000000 -1.000000 )  


     PseudoPot. # 1 for Sn read from file:
     ./Sn.pw91-n-van.UPF
     MD5 check sum: a38d2a872edd1a4efd76c0a1a38f7031
     Pseudo is Ultrasoft + core correction, Zval = 14.0
     Generated by new atomic code, or converted to UPF format
     Using radial grid of  891 points,  6 beta functions with: 
                l(1) =   0
                l(2) =   0
                l(3) =   1
                l(4) =   1
                l(5) =   2
                l(6) =   2
     Q(r) pseudized with  8 coefficients,  rinner =    1.100   1.100   1.100
                                                       1.100   1.100

     atomic species   valence    mass     pseudopotential
     Sn               14.00   118.70000     Sn( 1.00)

     48 Sym. Ops., with inversion, found (24 have fractional translation)



   Cartesian axes

     site n.     atom                  positions (alat units)
         1        Sn     tau(   1) = (   0.0000000   0.0000000   0.0000000  )
         2        Sn     tau(   2) = (   0.2500000   0.2500000   0.2500000  )

     number of k points=     8
                       cart. coord. in units 2pi/alat
        k(    1) = (   0.0000000   0.0000000   0.0000000), wk =   0.0312500
        k(    2) = (  -0.2500000   0.2500000  -0.2500000), wk =   0.2500000
        k(    3) = (   0.5000000  -0.5000000   0.5000000), wk =   0.1250000
        k(    4) = (   0.0000000   0.5000000   0.0000000), wk =   0.1875000
        k(    5) = (   0.7500000  -0.2500000   0.7500000), wk =   0.7500000
        k(    6) = (   0.5000000   0.0000000   0.5000000), wk =   0.3750000
        k(    7) = (   0.0000000  -1.0000000   0.0000000), wk =   0.0937500
        k(    8) = (  -0.5000000  -1.0000000   0.0000000), wk =   0.1875000

     Dense  grid:    82243 G-vectors     FFT dimensions: (  64,  64,  64)

     Estimated max dynamical RAM per process >       5.65 MB

     Estimated total dynamical RAM >     662.98 MB

     Initial potential from superposition of free atoms

     starting charge      27.9964, renormalised to      28.0000
     Starting wfcs are   18 randomized atomic wfcs

     total cpu time spent up to now is        0.8 secs

     per-process dynamical memory:    11.9 Mb

     Self-consistent Calculation

     iteration #  1     ecut=   121.00 Ry     beta= 0.70
     Davidson diagonalization with overlap
     ethr =  1.00E-02,  avg # of iterations =  1.6

     Threshold (ethr) on eigenvalues was too large:
     Diagonalizing with lowered threshold

     Davidson diagonalization with overlap
     ethr =  8.59E-05,  avg # of iterations =  2.1

     total cpu time spent up to now is        0.9 secs

     total energy              =    -325.61831070 Ry
     estimated scf accuracy    <       0.02911779 Ry

     iteration #  2     ecut=   121.00 Ry     beta= 0.70
     Davidson diagonalization with overlap
     ethr =  1.04E-04,  avg # of iterations =  1.0

     total cpu time spent up to now is        1.0 secs

     total energy              =    -325.61962881 Ry
     estimated scf accuracy    <       0.00152638 Ry

     iteration #  3     ecut=   121.00 Ry     beta= 0.70
     Davidson diagonalization with overlap
     ethr =  5.45E-06,  avg # of iterations =  2.1

     total cpu time spent up to now is        1.0 secs

     total energy              =    -325.61976336 Ry
     estimated scf accuracy    <       0.00003351 Ry

     iteration #  4     ecut=   121.00 Ry     beta= 0.70
     Davidson diagonalization with overlap
     ethr =  1.20E-07,  avg # of iterations =  3.6

     total cpu time spent up to now is        1.1 secs

     total energy              =    -325.61977404 Ry
     estimated scf accuracy    <       0.00000278 Ry

     iteration #  5     ecut=   121.00 Ry     beta= 0.70
     Davidson diagonalization with overlap
     ethr =  9.91E-09,  avg # of iterations =  3.5

     total cpu time spent up to now is        1.1 secs

     total energy              =    -325.61977454 Ry
     estimated scf accuracy    <       0.00000017 Ry

     iteration #  6     ecut=   121.00 Ry     beta= 0.70
     Davidson diagonalization with overlap
     ethr =  6.16E-10,  avg # of iterations =  2.2

     total cpu time spent up to now is        1.2 secs

     End of self-consistent calculation

          k = 0.0000 0.0000 0.0000 ( 10177 PWs)   bands (ev):

   -13.7084 -13.7084 -13.7084 -13.6493 -13.6493 -13.3313 -13.3313 -13.3313
   -13.3231 -13.3231  -2.7006   7.3361   8.0635   8.0635

          k =-0.2500 0.2500-0.2500 ( 10285 PWs)   bands (ev):

   -13.7349 -13.7349 -13.6955 -13.6086 -13.6086 -13.3776 -13.3776 -13.3486
   -13.2859 -13.2859  -2.1085   3.9182   7.3004   7.3004

          k = 0.5000-0.5000 0.5000 ( 10272 PWs)   bands (ev):

   -13.7457 -13.7457 -13.6813 -13.5873 -13.5873 -13.3939 -13.3939 -13.3665
   -13.2740 -13.2740  -1.0621   1.6349   6.8432   6.8432

          k = 0.0000 0.5000 0.0000 ( 10301 PWs)   bands (ev):

   -13.7368 -13.7368 -13.7128 -13.6009 -13.5510 -13.4645 -13.3701 -13.3016
   -13.2905 -13.2905  -1.8916   3.8043   6.3562   6.3562

          k = 0.7500-0.2500 0.7500 ( 10285 PWs)   bands (ev):

   -13.7755 -13.7550 -13.6487 -13.5500 -13.5207 -13.4925 -13.4249 -13.3762
   -13.2621 -13.2410  -0.7142   1.6732   5.0195   6.0390

          k = 0.5000 0.0000 0.5000 ( 10261 PWs)   bands (ev):

   -13.7689 -13.7570 -13.6425 -13.5845 -13.5467 -13.4388 -13.4076 -13.3935
   -13.2583 -13.2513  -1.2015   2.3656   4.9300   6.7745

          k = 0.0000-1.0000 0.0000 ( 10326 PWs)   bands (ev):

   -13.7611 -13.7611 -13.6244 -13.6244 -13.4846 -13.4846 -13.3991 -13.3991
   -13.2531 -13.2531   0.4179   0.4179   5.4845   5.4845

          k =-0.5000-1.0000 0.0000 ( 10284 PWs)   bands (ev):

   -13.7790 -13.7790 -13.5654 -13.5654 -13.4938 -13.4938 -13.4483 -13.4483
   -13.2355 -13.2355   0.4782   0.4782   4.9001   4.9001

     highest occupied level (ev):     8.0635

!    total energy              =    -325.61977457 Ry
     estimated scf accuracy    <       0.00000004 Ry

     The total energy is the sum of the following terms:
     one-electron contribution =    -150.97935309 Ry
     hartree contribution      =      93.25156896 Ry
     xc contribution           =     -95.23256007 Ry
     ewald contribution        =    -172.65943036 Ry

     convergence has been achieved in   6 iterations

     Writing all to output data dir ./alpha-sn-scf/alphatin.save/ :
     XML data file, charge density, pseudopotentials, collected wavefunctions

     init_run     :      0.43s CPU      0.50s WALL (       1 calls)
     electrons    :      0.37s CPU      0.43s WALL (       1 calls)

     Called by init_run:
     wfcinit      :      0.07s CPU      0.08s WALL (       1 calls)
     potinit      :      0.01s CPU      0.03s WALL (       1 calls)
     hinit0       :      0.29s CPU      0.31s WALL (       1 calls)

     Called by electrons:
     c_bands      :      0.20s CPU      0.22s WALL (       7 calls)
     sum_band     :      0.08s CPU      0.09s WALL (       7 calls)
     v_of_rho     :      0.04s CPU      0.06s WALL (       7 calls)
     newd         :      0.02s CPU      0.03s WALL (       7 calls)
     mix_rho      :      0.01s CPU      0.01s WALL (       7 calls)

     Called by c_bands:
     init_us_2    :      0.00s CPU      0.01s WALL (      30 calls)
     cegterg      :      0.18s CPU      0.19s WALL (      14 calls)

     Called by *egterg:
     cdiaghg      :      0.01s CPU      0.02s WALL (      48 calls)
     h_psi        :      0.22s CPU      0.22s WALL (      52 calls)
     s_psi        :      0.00s CPU      0.00s WALL (      52 calls)
     g_psi        :      0.00s CPU      0.00s WALL (      36 calls)

     Called by h_psi:
     h_psi:calbec :      0.01s CPU      0.01s WALL (      52 calls)
     vloc_psi     :      0.20s CPU      0.21s WALL (      52 calls)
     add_vuspsi   :      0.00s CPU      0.00s WALL (      52 calls)

     General routines
     calbec       :      0.01s CPU      0.01s WALL (      66 calls)
     fft          :      0.28s CPU      0.29s WALL (      78 calls)
     ffts         :      0.00s CPU      0.00s WALL (       7 calls)
     fftw         :      0.21s CPU      0.22s WALL (    1244 calls)

     Parallel routines

     PWSCF        :      1.04s CPU      1.43s WALL


   This run was terminated on:  16:21:25   5Feb2026            

=------------------------------------------------------------------------------=
   JOB DONE.
=------------------------------------------------------------------------------=
