
     Program PWSCF v.7.3.1 starts on  5Feb2026 at 16: 6:32 

     This program is part of the open-source Quantum ESPRESSO suite
     for quantum simulation of materials; please cite
         "P. Giannozzi et al., J. Phys.:Condens. Matter 21 395502 (2009);
         "P. Giannozzi et al., J. Phys.:Condens. Matter 29 465901 (2017);
         "P. Giannozzi et al., J. Chem. Phys. 152 154105 (2020);
          URL http://www.quantum-espresso.org", 
     in publications or presentations arising from this work. More details at
     http://www.quantum-espresso.org/quote

     Parallel version (MPI), running on   128 processors

     MPI processes distributed on     1 nodes
     241384 MiB available memory on the printing compute node when the environment starts

     Waiting for input...
     Reading input from standard input
     Message from routine read_cards :
     DEPRECATED: no units specified in ATOMIC_POSITIONS card
     Message from routine read_cards :
     ATOMIC_POSITIONS: units set to alat

     Current dimensions of program PWSCF are:
     Max number of different atomic species (ntypx) = 10
     Max number of k-points (npk) =  40000
     Max angular momentum in pseudopotentials (lmaxx) =  4

     K-points division:     npool     =       8
     R & G space division:  proc/nbgrp/npool/nimage =      16
     Subspace diagonalization in iterative solution of the eigenvalue problem:
     a serial algorithm will be used


     Parallelization info
     --------------------
     sticks:   dense  smooth     PW     G-vecs:    dense   smooth      PW
     Min          45      45     13                  792      792     129
     Max          46      46     14                  795      795     132
     Sum         721     721    211                12675    12675    2085

     Using Slab Decomposition



     bravais-lattice index     =            2
     lattice parameter (alat)  =      12.2300  a.u.
     unit-cell volume          =     457.3191 (a.u.)^3
     number of atoms/cell      =            2
     number of atomic types    =            1
     number of electrons       =        28.00
     number of Kohn-Sham states=           14
     kinetic-energy cutoff     =      35.0000  Ry
     charge density cutoff     =     140.0000  Ry
     scf convergence threshold =      1.0E-07
     mixing beta               =       0.7000
     number of iterations used =            8  plain     mixing
     Exchange-correlation=  SLA  PW   GGX  GGC
                           (   1   4   2   2   0   0   0)

     celldm(1)=  12.230000  celldm(2)=   0.000000  celldm(3)=   0.000000
     celldm(4)=   0.000000  celldm(5)=   0.000000  celldm(6)=   0.000000

     crystal axes: (cart. coord. in units of alat)
               a(1) = (  -0.500000   0.000000   0.500000 )  
               a(2) = (   0.000000   0.500000   0.500000 )  
               a(3) = (  -0.500000   0.500000   0.000000 )  

     reciprocal axes: (cart. coord. in units 2 pi/alat)
               b(1) = ( -1.000000 -1.000000  1.000000 )  
               b(2) = (  1.000000  1.000000  1.000000 )  
               b(3) = ( -1.000000  1.000000 -1.000000 )  


     PseudoPot. # 1 for Sn read from file:
     ./Sn.pw91-n-van.UPF
     MD5 check sum: a38d2a872edd1a4efd76c0a1a38f7031
     Pseudo is Ultrasoft + core correction, Zval = 14.0
     Generated by new atomic code, or converted to UPF format
     Using radial grid of  891 points,  6 beta functions with: 
                l(1) =   0
                l(2) =   0
                l(3) =   1
                l(4) =   1
                l(5) =   2
                l(6) =   2
     Q(r) pseudized with  8 coefficients,  rinner =    1.100   1.100   1.100
                                                       1.100   1.100

     atomic species   valence    mass     pseudopotential
     Sn               14.00   118.70000     Sn( 1.00)

     48 Sym. Ops., with inversion, found (24 have fractional translation)



   Cartesian axes

     site n.     atom                  positions (alat units)
         1        Sn     tau(   1) = (   0.0000000   0.0000000   0.0000000  )
         2        Sn     tau(   2) = (   0.2500000   0.2500000   0.2500000  )

     number of k points=     8
                       cart. coord. in units 2pi/alat
        k(    1) = (   0.0000000   0.0000000   0.0000000), wk =   0.0312500
        k(    2) = (  -0.2500000   0.2500000  -0.2500000), wk =   0.2500000
        k(    3) = (   0.5000000  -0.5000000   0.5000000), wk =   0.1250000
        k(    4) = (   0.0000000   0.5000000   0.0000000), wk =   0.1875000
        k(    5) = (   0.7500000  -0.2500000   0.7500000), wk =   0.7500000
        k(    6) = (   0.5000000   0.0000000   0.5000000), wk =   0.3750000
        k(    7) = (   0.0000000  -1.0000000   0.0000000), wk =   0.0937500
        k(    8) = (  -0.5000000  -1.0000000   0.0000000), wk =   0.1875000

     Dense  grid:    12675 G-vectors     FFT dimensions: (  36,  36,  36)

     Estimated max dynamical RAM per process >       1.92 MB

     Estimated total dynamical RAM >     223.84 MB

     Initial potential from superposition of free atoms

     starting charge      27.9964, renormalised to      28.0000
     Starting wfcs are   18 randomized atomic wfcs

     total cpu time spent up to now is        0.7 secs

     per-process dynamical memory:     9.5 Mb

     Self-consistent Calculation

     iteration #  1     ecut=    35.00 Ry     beta= 0.70
     Davidson diagonalization with overlap
     ethr =  1.00E-02,  avg # of iterations =  1.5

     Threshold (ethr) on eigenvalues was too large:
     Diagonalizing with lowered threshold

     Davidson diagonalization with overlap
     ethr =  8.45E-05,  avg # of iterations =  2.1

     total cpu time spent up to now is        0.8 secs

     total energy              =    -325.59238088 Ry
     estimated scf accuracy    <       0.02879927 Ry

     iteration #  2     ecut=    35.00 Ry     beta= 0.70
     Davidson diagonalization with overlap
     ethr =  1.03E-04,  avg # of iterations =  1.0

     negative rho (up, down):  3.785E-05 0.000E+00

     total cpu time spent up to now is        0.8 secs

     total energy              =    -325.59337268 Ry
     estimated scf accuracy    <       0.00163414 Ry

     iteration #  3     ecut=    35.00 Ry     beta= 0.70
     Davidson diagonalization with overlap
     ethr =  5.84E-06,  avg # of iterations =  2.1

     negative rho (up, down):  5.332E-05 0.000E+00

     total cpu time spent up to now is        0.8 secs

     total energy              =    -325.59350589 Ry
     estimated scf accuracy    <       0.00003693 Ry

     iteration #  4     ecut=    35.00 Ry     beta= 0.70
     Davidson diagonalization with overlap
     ethr =  1.32E-07,  avg # of iterations =  3.8

     negative rho (up, down):  6.254E-05 0.000E+00

     total cpu time spent up to now is        0.8 secs

     total energy              =    -325.59351911 Ry
     estimated scf accuracy    <       0.00000306 Ry

     iteration #  5     ecut=    35.00 Ry     beta= 0.70
     Davidson diagonalization with overlap
     ethr =  1.09E-08,  avg # of iterations =  3.4

     negative rho (up, down):  6.153E-05 0.000E+00

     total cpu time spent up to now is        0.9 secs

     total energy              =    -325.59351967 Ry
     estimated scf accuracy    <       0.00000029 Ry

     iteration #  6     ecut=    35.00 Ry     beta= 0.70
     Davidson diagonalization with overlap
     ethr =  1.02E-09,  avg # of iterations =  2.6

     negative rho (up, down):  6.220E-05 0.000E+00

     total cpu time spent up to now is        0.9 secs

     End of self-consistent calculation

          k = 0.0000 0.0000 0.0000 (  1639 PWs)   bands (ev):

   -13.6940 -13.6940 -13.6940 -13.6352 -13.6352 -13.3195 -13.3195 -13.3195
   -13.3082 -13.3082  -2.7011   7.3314   8.0649   8.0649

          k =-0.2500 0.2500-0.2500 (  1588 PWs)   bands (ev):

   -13.7201 -13.7201 -13.6804 -13.5929 -13.5929 -13.3620 -13.3620 -13.3357
   -13.2714 -13.2714  -2.1091   3.9176   7.3017   7.3017

          k = 0.5000-0.5000 0.5000 (  1568 PWs)   bands (ev):

   -13.7304 -13.7304 -13.6665 -13.5713 -13.5713 -13.3768 -13.3768 -13.3516
   -13.2608 -13.2608  -1.0630   1.6348   6.8443   6.8443

          k = 0.0000 0.5000 0.0000 (  1612 PWs)   bands (ev):

   -13.7224 -13.7224 -13.6984 -13.5852 -13.5358 -13.4502 -13.3547 -13.2868
   -13.2775 -13.2775  -1.8922   3.8028   6.3575   6.3575

          k = 0.7500-0.2500 0.7500 (  1600 PWs)   bands (ev):

   -13.7612 -13.7403 -13.6341 -13.5347 -13.5059 -13.4778 -13.4092 -13.3610
   -13.2492 -13.2272  -0.7150   1.6723   5.0213   6.0403

          k = 0.5000 0.0000 0.5000 (  1604 PWs)   bands (ev):

   -13.7544 -13.7421 -13.6283 -13.5693 -13.5309 -13.4235 -13.3943 -13.3781
   -13.2445 -13.2384  -1.2023   2.3646   4.9320   6.7757

          k = 0.0000-1.0000 0.0000 (  1588 PWs)   bands (ev):

   -13.7462 -13.7462 -13.6094 -13.6094 -13.4690 -13.4690 -13.3834 -13.3834
   -13.2396 -13.2396   0.4170   0.4170   5.4857   5.4857

          k =-0.5000-1.0000 0.0000 (  1604 PWs)   bands (ev):

   -13.7647 -13.7647 -13.5507 -13.5507 -13.4788 -13.4788 -13.4330 -13.4330
   -13.2220 -13.2220   0.4772   0.4772   4.9021   4.9021

     highest occupied level (ev):     8.0649

!    total energy              =    -325.59351971 Ry
     estimated scf accuracy    <       0.00000009 Ry

     The total energy is the sum of the following terms:
     one-electron contribution =    -150.94593799 Ry
     hartree contribution      =      93.24558262 Ry
     xc contribution           =     -95.23373396 Ry
     ewald contribution        =    -172.65943039 Ry

     convergence has been achieved in   6 iterations

     Writing all to output data dir ./alpha-sn-scf/alphatin.save/ :
     XML data file, charge density, pseudopotentials, collected wavefunctions

     init_run     :      0.31s CPU      0.36s WALL (       1 calls)
     electrons    :      0.13s CPU      0.17s WALL (       1 calls)

     Called by init_run:
     wfcinit      :      0.01s CPU      0.02s WALL (       1 calls)
     potinit      :      0.01s CPU      0.02s WALL (       1 calls)
     hinit0       :      0.28s CPU      0.29s WALL (       1 calls)

     Called by electrons:
     c_bands      :      0.06s CPU      0.07s WALL (       7 calls)
     sum_band     :      0.02s CPU      0.03s WALL (       7 calls)
     v_of_rho     :      0.02s CPU      0.03s WALL (       7 calls)
     newd         :      0.00s CPU      0.01s WALL (       7 calls)
     mix_rho      :      0.00s CPU      0.00s WALL (       7 calls)

     Called by c_bands:
     init_us_2    :      0.00s CPU      0.00s WALL (      15 calls)
     cegterg      :      0.06s CPU      0.06s WALL (       7 calls)

     Called by *egterg:
     cdiaghg      :      0.01s CPU      0.01s WALL (      27 calls)
     h_psi        :      0.05s CPU      0.05s WALL (      29 calls)
     s_psi        :      0.00s CPU      0.00s WALL (      29 calls)
     g_psi        :      0.00s CPU      0.00s WALL (      21 calls)

     Called by h_psi:
     h_psi:calbec :      0.00s CPU      0.00s WALL (      29 calls)
     vloc_psi     :      0.04s CPU      0.05s WALL (      29 calls)
     add_vuspsi   :      0.00s CPU      0.00s WALL (      29 calls)

     General routines
     calbec       :      0.00s CPU      0.00s WALL (      36 calls)
     fft          :      0.26s CPU      0.27s WALL (      78 calls)
     ffts         :      0.00s CPU      0.00s WALL (       7 calls)
     fftw         :      0.05s CPU      0.05s WALL (     624 calls)

     Parallel routines

     PWSCF        :      0.66s CPU      1.01s WALL


   This run was terminated on:  16: 6:33   5Feb2026            

=------------------------------------------------------------------------------=
   JOB DONE.
=------------------------------------------------------------------------------=
