
     Program PWSCF v.7.3.1 starts on  5Feb2026 at 16:14: 5 

     This program is part of the open-source Quantum ESPRESSO suite
     for quantum simulation of materials; please cite
         "P. Giannozzi et al., J. Phys.:Condens. Matter 21 395502 (2009);
         "P. Giannozzi et al., J. Phys.:Condens. Matter 29 465901 (2017);
         "P. Giannozzi et al., J. Chem. Phys. 152 154105 (2020);
          URL http://www.quantum-espresso.org", 
     in publications or presentations arising from this work. More details at
     http://www.quantum-espresso.org/quote

     Parallel version (MPI), running on   128 processors

     MPI processes distributed on     1 nodes
     241321 MiB available memory on the printing compute node when the environment starts

     Waiting for input...
     Reading input from standard input
     Message from routine read_cards :
     DEPRECATED: no units specified in ATOMIC_POSITIONS card
     Message from routine read_cards :
     ATOMIC_POSITIONS: units set to alat

     Current dimensions of program PWSCF are:
     Max number of different atomic species (ntypx) = 10
     Max number of k-points (npk) =  40000
     Max angular momentum in pseudopotentials (lmaxx) =  4

     K-points division:     npool     =       8
     R & G space division:  proc/nbgrp/npool/nimage =      16
     Subspace diagonalization in iterative solution of the eigenvalue problem:
     a serial algorithm will be used


     Parallelization info
     --------------------
     sticks:   dense  smooth     PW     G-vecs:    dense   smooth      PW
     Min         103     103     29                 2814     2814     427
     Max         104     104     30                 2818     2818     430
     Sum        1663    1663    475                45071    45071    6855

     Using Slab Decomposition



     bravais-lattice index     =            2
     lattice parameter (alat)  =      12.2300  a.u.
     unit-cell volume          =     457.3191 (a.u.)^3
     number of atoms/cell      =            2
     number of atomic types    =            1
     number of electrons       =        28.00
     number of Kohn-Sham states=           14
     kinetic-energy cutoff     =      81.0000  Ry
     charge density cutoff     =     324.0000  Ry
     scf convergence threshold =      1.0E-07
     mixing beta               =       0.7000
     number of iterations used =            8  plain     mixing
     Exchange-correlation=  SLA  PW   GGX  GGC
                           (   1   4   2   2   0   0   0)

     celldm(1)=  12.230000  celldm(2)=   0.000000  celldm(3)=   0.000000
     celldm(4)=   0.000000  celldm(5)=   0.000000  celldm(6)=   0.000000

     crystal axes: (cart. coord. in units of alat)
               a(1) = (  -0.500000   0.000000   0.500000 )  
               a(2) = (   0.000000   0.500000   0.500000 )  
               a(3) = (  -0.500000   0.500000   0.000000 )  

     reciprocal axes: (cart. coord. in units 2 pi/alat)
               b(1) = ( -1.000000 -1.000000  1.000000 )  
               b(2) = (  1.000000  1.000000  1.000000 )  
               b(3) = ( -1.000000  1.000000 -1.000000 )  


     PseudoPot. # 1 for Sn read from file:
     ./Sn.pw91-n-van.UPF
     MD5 check sum: a38d2a872edd1a4efd76c0a1a38f7031
     Pseudo is Ultrasoft + core correction, Zval = 14.0
     Generated by new atomic code, or converted to UPF format
     Using radial grid of  891 points,  6 beta functions with: 
                l(1) =   0
                l(2) =   0
                l(3) =   1
                l(4) =   1
                l(5) =   2
                l(6) =   2
     Q(r) pseudized with  8 coefficients,  rinner =    1.100   1.100   1.100
                                                       1.100   1.100

     atomic species   valence    mass     pseudopotential
     Sn               14.00   118.70000     Sn( 1.00)

     48 Sym. Ops., with inversion, found (24 have fractional translation)



   Cartesian axes

     site n.     atom                  positions (alat units)
         1        Sn     tau(   1) = (   0.0000000   0.0000000   0.0000000  )
         2        Sn     tau(   2) = (   0.2500000   0.2500000   0.2500000  )

     number of k points=     8
                       cart. coord. in units 2pi/alat
        k(    1) = (   0.0000000   0.0000000   0.0000000), wk =   0.0312500
        k(    2) = (  -0.2500000   0.2500000  -0.2500000), wk =   0.2500000
        k(    3) = (   0.5000000  -0.5000000   0.5000000), wk =   0.1250000
        k(    4) = (   0.0000000   0.5000000   0.0000000), wk =   0.1875000
        k(    5) = (   0.7500000  -0.2500000   0.7500000), wk =   0.7500000
        k(    6) = (   0.5000000   0.0000000   0.5000000), wk =   0.3750000
        k(    7) = (   0.0000000  -1.0000000   0.0000000), wk =   0.0937500
        k(    8) = (  -0.5000000  -1.0000000   0.0000000), wk =   0.1875000

     Dense  grid:    45071 G-vectors     FFT dimensions: (  60,  60,  60)

     Estimated max dynamical RAM per process >       4.92 MB

     Estimated total dynamical RAM >     552.34 MB

     Initial potential from superposition of free atoms

     starting charge      27.9964, renormalised to      28.0000
     Starting wfcs are   18 randomized atomic wfcs

     total cpu time spent up to now is        0.9 secs

     per-process dynamical memory:    11.9 Mb

     Self-consistent Calculation

     iteration #  1     ecut=    81.00 Ry     beta= 0.70
     Davidson diagonalization with overlap
     ethr =  1.00E-02,  avg # of iterations =  1.6

     Threshold (ethr) on eigenvalues was too large:
     Diagonalizing with lowered threshold

     Davidson diagonalization with overlap
     ethr =  8.35E-05,  avg # of iterations =  2.1

     total cpu time spent up to now is        1.0 secs

     total energy              =    -325.61283924 Ry
     estimated scf accuracy    <       0.02858843 Ry

     iteration #  2     ecut=    81.00 Ry     beta= 0.70
     Davidson diagonalization with overlap
     ethr =  1.02E-04,  avg # of iterations =  1.0

     total cpu time spent up to now is        1.0 secs

     total energy              =    -325.61384025 Ry
     estimated scf accuracy    <       0.00164734 Ry

     iteration #  3     ecut=    81.00 Ry     beta= 0.70
     Davidson diagonalization with overlap
     ethr =  5.88E-06,  avg # of iterations =  2.1

     total cpu time spent up to now is        1.1 secs

     total energy              =    -325.61397657 Ry
     estimated scf accuracy    <       0.00003949 Ry

     iteration #  4     ecut=    81.00 Ry     beta= 0.70
     Davidson diagonalization with overlap
     ethr =  1.41E-07,  avg # of iterations =  3.1

     total cpu time spent up to now is        1.1 secs

     total energy              =    -325.61398796 Ry
     estimated scf accuracy    <       0.00000334 Ry

     iteration #  5     ecut=    81.00 Ry     beta= 0.70
     Davidson diagonalization with overlap
     ethr =  1.19E-08,  avg # of iterations =  3.8

     total cpu time spent up to now is        1.2 secs

     total energy              =    -325.61398866 Ry
     estimated scf accuracy    <       0.00000032 Ry

     iteration #  6     ecut=    81.00 Ry     beta= 0.70
     Davidson diagonalization with overlap
     ethr =  1.16E-09,  avg # of iterations =  2.8

     total cpu time spent up to now is        1.2 secs

     total energy              =    -325.61398872 Ry
     estimated scf accuracy    <       0.00000010 Ry

     iteration #  7     ecut=    81.00 Ry     beta= 0.70
     Davidson diagonalization with overlap
     ethr =  3.60E-10,  avg # of iterations =  2.0

     total cpu time spent up to now is        1.2 secs

     End of self-consistent calculation

          k = 0.0000 0.0000 0.0000 (  5601 PWs)   bands (ev):

   -13.7037 -13.7037 -13.7037 -13.6453 -13.6453 -13.3267 -13.3267 -13.3267
   -13.3191 -13.3191  -2.6980   7.3380   8.0652   8.0652

          k =-0.2500 0.2500-0.2500 (  5654 PWs)   bands (ev):

   -13.7301 -13.7301 -13.6905 -13.6046 -13.6046 -13.3733 -13.3733 -13.3436
   -13.2811 -13.2811  -2.1061   3.9205   7.3021   7.3021

          k = 0.5000-0.5000 0.5000 (  5624 PWs)   bands (ev):

   -13.7407 -13.7407 -13.6766 -13.5834 -13.5834 -13.3896 -13.3896 -13.3613
   -13.2691 -13.2691  -1.0603   1.6381   6.8448   6.8448

          k = 0.0000 0.5000 0.0000 (  5646 PWs)   bands (ev):

   -13.7319 -13.7319 -13.7080 -13.5967 -13.5466 -13.4599 -13.3660 -13.2972
   -13.2854 -13.2854  -1.8892   3.8058   6.3583   6.3583

          k = 0.7500-0.2500 0.7500 (  5625 PWs)   bands (ev):

   -13.7707 -13.7501 -13.6440 -13.5458 -13.5163 -13.4879 -13.4208 -13.3716
   -13.2571 -13.2360  -0.7122   1.6751   5.0239   6.0411

          k = 0.5000 0.0000 0.5000 (  5634 PWs)   bands (ev):

   -13.7641 -13.7522 -13.6377 -13.5804 -13.5426 -13.4345 -13.4027 -13.3894
   -13.2535 -13.2463  -1.1994   2.3674   4.9347   6.7762

          k = 0.0000-1.0000 0.0000 (  5658 PWs)   bands (ev):

   -13.7560 -13.7560 -13.6199 -13.6199 -13.4804 -13.4804 -13.3946 -13.3946
   -13.2480 -13.2480   0.4198   0.4198   5.4868   5.4868

          k =-0.5000-1.0000 0.0000 (  5604 PWs)   bands (ev):

   -13.7741 -13.7741 -13.5607 -13.5607 -13.4895 -13.4895 -13.4439 -13.4439
   -13.2304 -13.2304   0.4799   0.4799   4.9045   4.9045

     highest occupied level (ev):     8.0652

!    total energy              =    -325.61398873 Ry
     estimated scf accuracy    <          1.5E-09 Ry

     The total energy is the sum of the following terms:
     one-electron contribution =    -150.97700546 Ry
     hartree contribution      =      93.25615737 Ry
     xc contribution           =     -95.23371028 Ry
     ewald contribution        =    -172.65943036 Ry

     convergence has been achieved in   7 iterations

     Writing all to output data dir ./alpha-sn-scf/alphatin.save/ :
     XML data file, charge density, pseudopotentials, collected wavefunctions

     init_run     :      0.51s CPU      0.56s WALL (       1 calls)
     electrons    :      0.35s CPU      0.39s WALL (       1 calls)

     Called by init_run:
     wfcinit      :      0.01s CPU      0.02s WALL (       1 calls)
     potinit      :      0.02s CPU      0.03s WALL (       1 calls)
     hinit0       :      0.44s CPU      0.46s WALL (       1 calls)

     Called by electrons:
     c_bands      :      0.15s CPU      0.16s WALL (       8 calls)
     sum_band     :      0.06s CPU      0.08s WALL (       8 calls)
     v_of_rho     :      0.09s CPU      0.10s WALL (       8 calls)
     newd         :      0.02s CPU      0.03s WALL (       8 calls)
     mix_rho      :      0.01s CPU      0.01s WALL (       8 calls)

     Called by c_bands:
     init_us_2    :      0.00s CPU      0.00s WALL (      17 calls)
     cegterg      :      0.14s CPU      0.14s WALL (       8 calls)

     Called by *egterg:
     cdiaghg      :      0.01s CPU      0.01s WALL (      32 calls)
     h_psi        :      0.13s CPU      0.13s WALL (      34 calls)
     s_psi        :      0.00s CPU      0.00s WALL (      34 calls)
     g_psi        :      0.00s CPU      0.00s WALL (      25 calls)

     Called by h_psi:
     h_psi:calbec :      0.00s CPU      0.00s WALL (      34 calls)
     vloc_psi     :      0.12s CPU      0.12s WALL (      34 calls)
     add_vuspsi   :      0.00s CPU      0.00s WALL (      34 calls)

     General routines
     calbec       :      0.01s CPU      0.01s WALL (      42 calls)
     fft          :      0.44s CPU      0.45s WALL (      89 calls)
     ffts         :      0.00s CPU      0.00s WALL (       8 calls)
     fftw         :      0.12s CPU      0.13s WALL (     708 calls)

     Parallel routines

     PWSCF        :      1.13s CPU      1.36s WALL


   This run was terminated on:  16:14: 6   5Feb2026            

=------------------------------------------------------------------------------=
   JOB DONE.
=------------------------------------------------------------------------------=
