
     Program PWSCF v.7.3.1 starts on  5Feb2026 at 16:24:45 

     This program is part of the open-source Quantum ESPRESSO suite
     for quantum simulation of materials; please cite
         "P. Giannozzi et al., J. Phys.:Condens. Matter 21 395502 (2009);
         "P. Giannozzi et al., J. Phys.:Condens. Matter 29 465901 (2017);
         "P. Giannozzi et al., J. Chem. Phys. 152 154105 (2020);
          URL http://www.quantum-espresso.org", 
     in publications or presentations arising from this work. More details at
     http://www.quantum-espresso.org/quote

     Parallel version (MPI), running on   128 processors

     MPI processes distributed on     1 nodes
     241346 MiB available memory on the printing compute node when the environment starts

     Waiting for input...
     Reading input from standard input
     Message from routine read_cards :
     DEPRECATED: no units specified in ATOMIC_POSITIONS card
     Message from routine read_cards :
     ATOMIC_POSITIONS: units set to alat

     Current dimensions of program PWSCF are:
     Max number of different atomic species (ntypx) = 10
     Max number of k-points (npk) =  40000
     Max angular momentum in pseudopotentials (lmaxx) =  4

     K-points division:     npool     =       4
     R & G space division:  proc/nbgrp/npool/nimage =      32
     Subspace diagonalization in iterative solution of the eigenvalue problem:
     a serial algorithm will be used


     Parallelization info
     --------------------
     sticks:   dense  smooth     PW     G-vecs:    dense   smooth      PW
     Min          89      89     24                 3165     3165     454
     Max          90      90     25                 3168     3168     458
     Sum        2869    2869    793               101333   101333   14553

     Using Slab Decomposition



     bravais-lattice index     =            2
     lattice parameter (alat)  =      12.2300  a.u.
     unit-cell volume          =     457.3191 (a.u.)^3
     number of atoms/cell      =            2
     number of atomic types    =            1
     number of electrons       =        28.00
     number of Kohn-Sham states=           14
     kinetic-energy cutoff     =     139.0000  Ry
     charge density cutoff     =     556.0000  Ry
     scf convergence threshold =      1.0E-07
     mixing beta               =       0.7000
     number of iterations used =            8  plain     mixing
     Exchange-correlation=  SLA  PW   GGX  GGC
                           (   1   4   2   2   0   0   0)

     celldm(1)=  12.230000  celldm(2)=   0.000000  celldm(3)=   0.000000
     celldm(4)=   0.000000  celldm(5)=   0.000000  celldm(6)=   0.000000

     crystal axes: (cart. coord. in units of alat)
               a(1) = (  -0.500000   0.000000   0.500000 )  
               a(2) = (   0.000000   0.500000   0.500000 )  
               a(3) = (  -0.500000   0.500000   0.000000 )  

     reciprocal axes: (cart. coord. in units 2 pi/alat)
               b(1) = ( -1.000000 -1.000000  1.000000 )  
               b(2) = (  1.000000  1.000000  1.000000 )  
               b(3) = ( -1.000000  1.000000 -1.000000 )  


     PseudoPot. # 1 for Sn read from file:
     ./Sn.pw91-n-van.UPF
     MD5 check sum: a38d2a872edd1a4efd76c0a1a38f7031
     Pseudo is Ultrasoft + core correction, Zval = 14.0
     Generated by new atomic code, or converted to UPF format
     Using radial grid of  891 points,  6 beta functions with: 
                l(1) =   0
                l(2) =   0
                l(3) =   1
                l(4) =   1
                l(5) =   2
                l(6) =   2
     Q(r) pseudized with  8 coefficients,  rinner =    1.100   1.100   1.100
                                                       1.100   1.100

     atomic species   valence    mass     pseudopotential
     Sn               14.00   118.70000     Sn( 1.00)

     48 Sym. Ops., with inversion, found (24 have fractional translation)



   Cartesian axes

     site n.     atom                  positions (alat units)
         1        Sn     tau(   1) = (   0.0000000   0.0000000   0.0000000  )
         2        Sn     tau(   2) = (   0.2500000   0.2500000   0.2500000  )

     number of k points=     8
                       cart. coord. in units 2pi/alat
        k(    1) = (   0.0000000   0.0000000   0.0000000), wk =   0.0312500
        k(    2) = (  -0.2500000   0.2500000  -0.2500000), wk =   0.2500000
        k(    3) = (   0.5000000  -0.5000000   0.5000000), wk =   0.1250000
        k(    4) = (   0.0000000   0.5000000   0.0000000), wk =   0.1875000
        k(    5) = (   0.7500000  -0.2500000   0.7500000), wk =   0.7500000
        k(    6) = (   0.5000000   0.0000000   0.5000000), wk =   0.3750000
        k(    7) = (   0.0000000  -1.0000000   0.0000000), wk =   0.0937500
        k(    8) = (  -0.5000000  -1.0000000   0.0000000), wk =   0.1875000

     Dense  grid:   101333 G-vectors     FFT dimensions: (  72,  72,  72)

     Estimated max dynamical RAM per process >       7.05 MB

     Estimated total dynamical RAM >     828.37 MB

     Initial potential from superposition of free atoms

     starting charge      27.9964, renormalised to      28.0000
     Starting wfcs are   18 randomized atomic wfcs

     total cpu time spent up to now is        1.1 secs

     per-process dynamical memory:    14.5 Mb

     Self-consistent Calculation

     iteration #  1     ecut=   139.00 Ry     beta= 0.70
     Davidson diagonalization with overlap
     ethr =  1.00E-02,  avg # of iterations =  1.9

     Threshold (ethr) on eigenvalues was too large:
     Diagonalizing with lowered threshold

     Davidson diagonalization with overlap
     ethr =  9.07E-05,  avg # of iterations =  2.0

     total cpu time spent up to now is        1.2 secs

     total energy              =    -325.62390593 Ry
     estimated scf accuracy    <       0.02956736 Ry

     iteration #  2     ecut=   139.00 Ry     beta= 0.70
     Davidson diagonalization with overlap
     ethr =  1.06E-04,  avg # of iterations =  1.1

     total cpu time spent up to now is        1.3 secs

     total energy              =    -325.62591192 Ry
     estimated scf accuracy    <       0.00147353 Ry

     iteration #  3     ecut=   139.00 Ry     beta= 0.70
     Davidson diagonalization with overlap
     ethr =  5.26E-06,  avg # of iterations =  2.2

     total cpu time spent up to now is        1.4 secs

     total energy              =    -325.62607128 Ry
     estimated scf accuracy    <       0.00003311 Ry

     iteration #  4     ecut=   139.00 Ry     beta= 0.70
     Davidson diagonalization with overlap
     ethr =  1.18E-07,  avg # of iterations =  3.9

     total cpu time spent up to now is        1.5 secs

     total energy              =    -325.62608197 Ry
     estimated scf accuracy    <       0.00000254 Ry

     iteration #  5     ecut=   139.00 Ry     beta= 0.70
     Davidson diagonalization with overlap
     ethr =  9.09E-09,  avg # of iterations =  3.4

     total cpu time spent up to now is        1.6 secs

     total energy              =    -325.62608234 Ry
     estimated scf accuracy    <       0.00000015 Ry

     iteration #  6     ecut=   139.00 Ry     beta= 0.70
     Davidson diagonalization with overlap
     ethr =  5.34E-10,  avg # of iterations =  2.6

     total cpu time spent up to now is        1.6 secs

     End of self-consistent calculation

          k = 0.0000 0.0000 0.0000 ( 12627 PWs)   bands (ev):

   -13.7114 -13.7114 -13.7114 -13.6524 -13.6524 -13.3350 -13.3350 -13.3350
   -13.3262 -13.3262  -2.7006   7.3363   8.0632   8.0632

          k =-0.2500 0.2500-0.2500 ( 12644 PWs)   bands (ev):

   -13.7378 -13.7378 -13.6984 -13.6116 -13.6116 -13.3806 -13.3806 -13.3518
   -13.2891 -13.2891  -2.1086   3.9182   7.3002   7.3002

          k = 0.5000-0.5000 0.5000 ( 12662 PWs)   bands (ev):

   -13.7486 -13.7486 -13.6844 -13.5903 -13.5903 -13.3969 -13.3969 -13.3695
   -13.2773 -13.2773  -1.0621   1.6348   6.8430   6.8430

          k = 0.0000 0.5000 0.0000 ( 12711 PWs)   bands (ev):

   -13.7398 -13.7398 -13.7156 -13.6037 -13.5540 -13.4676 -13.3731 -13.3049
   -13.2938 -13.2938  -1.8916   3.8042   6.3560   6.3560

          k = 0.7500-0.2500 0.7500 ( 12650 PWs)   bands (ev):

   -13.7785 -13.7579 -13.6517 -13.5529 -13.5237 -13.4955 -13.4279 -13.3793
   -13.2654 -13.2443  -0.7142   1.6731   5.0194   6.0389

          k = 0.5000 0.0000 0.5000 ( 12668 PWs)   bands (ev):

   -13.7719 -13.7599 -13.6457 -13.5874 -13.5497 -13.4419 -13.4108 -13.3966
   -13.2615 -13.2546  -1.2016   2.3655   4.9298   6.7743

          k = 0.0000-1.0000 0.0000 ( 12686 PWs)   bands (ev):

   -13.7639 -13.7639 -13.6274 -13.6274 -13.4875 -13.4875 -13.4021 -13.4021
   -13.2563 -13.2563   0.4179   0.4179   5.4844   5.4844

          k =-0.5000-1.0000 0.0000 ( 12608 PWs)   bands (ev):

   -13.7819 -13.7819 -13.5684 -13.5684 -13.4967 -13.4967 -13.4513 -13.4513
   -13.2387 -13.2387   0.4782   0.4782   4.9000   4.9000

     highest occupied level (ev):     8.0632

!    total energy              =    -325.62608237 Ry
     estimated scf accuracy    <       0.00000001 Ry

     The total energy is the sum of the following terms:
     one-electron contribution =    -150.98797985 Ry
     hartree contribution      =      93.25459552 Ry
     xc contribution           =     -95.23326767 Ry
     ewald contribution        =    -172.65943036 Ry

     convergence has been achieved in   6 iterations

     Writing all to output data dir ./alpha-sn-scf/alphatin.save/ :
     XML data file, charge density, pseudopotentials, collected wavefunctions

     init_run     :      0.68s CPU      0.76s WALL (       1 calls)
     electrons    :      0.54s CPU      0.62s WALL (       1 calls)

     Called by init_run:
     wfcinit      :      0.02s CPU      0.05s WALL (       1 calls)
     potinit      :      0.02s CPU      0.04s WALL (       1 calls)
     hinit0       :      0.59s CPU      0.60s WALL (       1 calls)

     Called by electrons:
     c_bands      :      0.30s CPU      0.32s WALL (       7 calls)
     sum_band     :      0.11s CPU      0.12s WALL (       7 calls)
     v_of_rho     :      0.09s CPU      0.10s WALL (       7 calls)
     newd         :      0.03s CPU      0.04s WALL (       7 calls)
     mix_rho      :      0.01s CPU      0.01s WALL (       7 calls)

     Called by c_bands:
     init_us_2    :      0.01s CPU      0.01s WALL (      30 calls)
     cegterg      :      0.28s CPU      0.30s WALL (      14 calls)

     Called by *egterg:
     cdiaghg      :      0.02s CPU      0.02s WALL (      53 calls)
     h_psi        :      0.26s CPU      0.28s WALL (      57 calls)
     s_psi        :      0.00s CPU      0.00s WALL (      57 calls)
     g_psi        :      0.00s CPU      0.00s WALL (      41 calls)

     Called by h_psi:
     h_psi:calbec :      0.01s CPU      0.01s WALL (      57 calls)
     vloc_psi     :      0.25s CPU      0.27s WALL (      57 calls)
     add_vuspsi   :      0.00s CPU      0.00s WALL (      57 calls)

     General routines
     calbec       :      0.01s CPU      0.01s WALL (      71 calls)
     fft          :      0.58s CPU      0.59s WALL (      78 calls)
     ffts         :      0.00s CPU      0.00s WALL (       7 calls)
     fftw         :      0.26s CPU      0.28s WALL (    1230 calls)

     Parallel routines

     PWSCF        :      1.44s CPU      1.80s WALL


   This run was terminated on:  16:24:47   5Feb2026            

=------------------------------------------------------------------------------=
   JOB DONE.
=------------------------------------------------------------------------------=
