
     Program PWSCF v.7.3.1 starts on  5Feb2026 at 16:16:19 

     This program is part of the open-source Quantum ESPRESSO suite
     for quantum simulation of materials; please cite
         "P. Giannozzi et al., J. Phys.:Condens. Matter 21 395502 (2009);
         "P. Giannozzi et al., J. Phys.:Condens. Matter 29 465901 (2017);
         "P. Giannozzi et al., J. Chem. Phys. 152 154105 (2020);
          URL http://www.quantum-espresso.org", 
     in publications or presentations arising from this work. More details at
     http://www.quantum-espresso.org/quote

     Parallel version (MPI), running on   128 processors

     MPI processes distributed on     1 nodes
     241310 MiB available memory on the printing compute node when the environment starts

     Waiting for input...
     Reading input from standard input
     Message from routine read_cards :
     DEPRECATED: no units specified in ATOMIC_POSITIONS card
     Message from routine read_cards :
     ATOMIC_POSITIONS: units set to alat

     Current dimensions of program PWSCF are:
     Max number of different atomic species (ntypx) = 10
     Max number of k-points (npk) =  40000
     Max angular momentum in pseudopotentials (lmaxx) =  4

     K-points division:     npool     =       8
     R & G space division:  proc/nbgrp/npool/nimage =      16
     Subspace diagonalization in iterative solution of the eigenvalue problem:
     a serial algorithm will be used


     Parallelization info
     --------------------
     sticks:   dense  smooth     PW     G-vecs:    dense   smooth      PW
     Min         119     119     33                 3458     3458     517
     Max         120     120     35                 3461     3461     519
     Sum        1915    1915    547                55369    55369    8291

     Using Slab Decomposition



     bravais-lattice index     =            2
     lattice parameter (alat)  =      12.2300  a.u.
     unit-cell volume          =     457.3191 (a.u.)^3
     number of atoms/cell      =            2
     number of atomic types    =            1
     number of electrons       =        28.00
     number of Kohn-Sham states=           14
     kinetic-energy cutoff     =      93.0000  Ry
     charge density cutoff     =     372.0000  Ry
     scf convergence threshold =      1.0E-07
     mixing beta               =       0.7000
     number of iterations used =            8  plain     mixing
     Exchange-correlation=  SLA  PW   GGX  GGC
                           (   1   4   2   2   0   0   0)

     celldm(1)=  12.230000  celldm(2)=   0.000000  celldm(3)=   0.000000
     celldm(4)=   0.000000  celldm(5)=   0.000000  celldm(6)=   0.000000

     crystal axes: (cart. coord. in units of alat)
               a(1) = (  -0.500000   0.000000   0.500000 )  
               a(2) = (   0.000000   0.500000   0.500000 )  
               a(3) = (  -0.500000   0.500000   0.000000 )  

     reciprocal axes: (cart. coord. in units 2 pi/alat)
               b(1) = ( -1.000000 -1.000000  1.000000 )  
               b(2) = (  1.000000  1.000000  1.000000 )  
               b(3) = ( -1.000000  1.000000 -1.000000 )  


     PseudoPot. # 1 for Sn read from file:
     ./Sn.pw91-n-van.UPF
     MD5 check sum: a38d2a872edd1a4efd76c0a1a38f7031
     Pseudo is Ultrasoft + core correction, Zval = 14.0
     Generated by new atomic code, or converted to UPF format
     Using radial grid of  891 points,  6 beta functions with: 
                l(1) =   0
                l(2) =   0
                l(3) =   1
                l(4) =   1
                l(5) =   2
                l(6) =   2
     Q(r) pseudized with  8 coefficients,  rinner =    1.100   1.100   1.100
                                                       1.100   1.100

     atomic species   valence    mass     pseudopotential
     Sn               14.00   118.70000     Sn( 1.00)

     48 Sym. Ops., with inversion, found (24 have fractional translation)



   Cartesian axes

     site n.     atom                  positions (alat units)
         1        Sn     tau(   1) = (   0.0000000   0.0000000   0.0000000  )
         2        Sn     tau(   2) = (   0.2500000   0.2500000   0.2500000  )

     number of k points=     8
                       cart. coord. in units 2pi/alat
        k(    1) = (   0.0000000   0.0000000   0.0000000), wk =   0.0312500
        k(    2) = (  -0.2500000   0.2500000  -0.2500000), wk =   0.2500000
        k(    3) = (   0.5000000  -0.5000000   0.5000000), wk =   0.1250000
        k(    4) = (   0.0000000   0.5000000   0.0000000), wk =   0.1875000
        k(    5) = (   0.7500000  -0.2500000   0.7500000), wk =   0.7500000
        k(    6) = (   0.5000000   0.0000000   0.5000000), wk =   0.3750000
        k(    7) = (   0.0000000  -1.0000000   0.0000000), wk =   0.0937500
        k(    8) = (  -0.5000000  -1.0000000   0.0000000), wk =   0.1875000

     Dense  grid:    55369 G-vectors     FFT dimensions: (  60,  60,  60)

     Estimated max dynamical RAM per process >       5.59 MB

     Estimated total dynamical RAM >     620.96 MB

     Initial potential from superposition of free atoms

     starting charge      27.9964, renormalised to      28.0000
     Starting wfcs are   18 randomized atomic wfcs

     total cpu time spent up to now is        0.9 secs

     per-process dynamical memory:    12.2 Mb

     Self-consistent Calculation

     iteration #  1     ecut=    93.00 Ry     beta= 0.70
     Davidson diagonalization with overlap
     ethr =  1.00E-02,  avg # of iterations =  1.6

     Threshold (ethr) on eigenvalues was too large:
     Diagonalizing with lowered threshold

     Davidson diagonalization with overlap
     ethr =  8.24E-05,  avg # of iterations =  2.0

     total cpu time spent up to now is        1.0 secs

     total energy              =    -325.61436541 Ry
     estimated scf accuracy    <       0.02856829 Ry

     iteration #  2     ecut=    93.00 Ry     beta= 0.70
     Davidson diagonalization with overlap
     ethr =  1.02E-04,  avg # of iterations =  1.0

     negative rho (up, down):  1.222E-05 0.000E+00

     total cpu time spent up to now is        1.0 secs

     total energy              =    -325.61535625 Ry
     estimated scf accuracy    <       0.00163316 Ry

     iteration #  3     ecut=    93.00 Ry     beta= 0.70
     Davidson diagonalization with overlap
     ethr =  5.83E-06,  avg # of iterations =  2.1

     negative rho (up, down):  1.620E-05 0.000E+00

     total cpu time spent up to now is        1.1 secs

     total energy              =    -325.61549391 Ry
     estimated scf accuracy    <       0.00004013 Ry

     iteration #  4     ecut=    93.00 Ry     beta= 0.70
     Davidson diagonalization with overlap
     ethr =  1.43E-07,  avg # of iterations =  3.4

     negative rho (up, down):  1.873E-05 0.000E+00

     total cpu time spent up to now is        1.1 secs

     total energy              =    -325.61550505 Ry
     estimated scf accuracy    <       0.00000342 Ry

     iteration #  5     ecut=    93.00 Ry     beta= 0.70
     Davidson diagonalization with overlap
     ethr =  1.22E-08,  avg # of iterations =  3.6

     negative rho (up, down):  1.849E-05 0.000E+00

     total cpu time spent up to now is        1.2 secs

     total energy              =    -325.61550565 Ry
     estimated scf accuracy    <       0.00000035 Ry

     iteration #  6     ecut=    93.00 Ry     beta= 0.70
     Davidson diagonalization with overlap
     ethr =  1.24E-09,  avg # of iterations =  2.1

     negative rho (up, down):  1.861E-05 0.000E+00

     total cpu time spent up to now is        1.2 secs

     End of self-consistent calculation

          k = 0.0000 0.0000 0.0000 (  6879 PWs)   bands (ev):

   -13.7065 -13.7065 -13.7065 -13.6471 -13.6471 -13.3297 -13.3297 -13.3297
   -13.3209 -13.3209  -2.7007   7.3358   8.0635   8.0635

          k =-0.2500 0.2500-0.2500 (  6916 PWs)   bands (ev):

   -13.7328 -13.7328 -13.6933 -13.6064 -13.6064 -13.3753 -13.3753 -13.3467
   -13.2838 -13.2838  -2.1086   3.9182   7.3004   7.3004

          k = 0.5000-0.5000 0.5000 (  6934 PWs)   bands (ev):

   -13.7436 -13.7436 -13.6794 -13.5852 -13.5852 -13.3915 -13.3915 -13.3644
   -13.2722 -13.2722  -1.0622   1.6348   6.8432   6.8432

          k = 0.0000 0.5000 0.0000 (  6971 PWs)   bands (ev):

   -13.7347 -13.7347 -13.7106 -13.5985 -13.5488 -13.4624 -13.3678 -13.2995
   -13.2886 -13.2886  -1.8917   3.8042   6.3562   6.3562

          k = 0.7500-0.2500 0.7500 (  6928 PWs)   bands (ev):

   -13.7735 -13.7530 -13.6467 -13.5477 -13.5186 -13.4904 -13.4226 -13.3740
   -13.2602 -13.2390  -0.7142   1.6731   5.0196   6.0391

          k = 0.5000 0.0000 0.5000 (  6919 PWs)   bands (ev):

   -13.7669 -13.7549 -13.6406 -13.5822 -13.5445 -13.4366 -13.4057 -13.3913
   -13.2563 -13.2494  -1.2016   2.3655   4.9301   6.7745

          k = 0.0000-1.0000 0.0000 (  6918 PWs)   bands (ev):

   -13.7589 -13.7589 -13.6223 -13.6223 -13.4822 -13.4822 -13.3968 -13.3968
   -13.2511 -13.2511   0.4178   0.4178   5.4846   5.4846

          k =-0.5000-1.0000 0.0000 (  6892 PWs)   bands (ev):

   -13.7770 -13.7770 -13.5633 -13.5633 -13.4915 -13.4915 -13.4461 -13.4461
   -13.2335 -13.2335   0.4781   0.4781   4.9002   4.9002

     highest occupied level (ev):     8.0635

!    total energy              =    -325.61550571 Ry
     estimated scf accuracy    <       0.00000005 Ry

     The total energy is the sum of the following terms:
     one-electron contribution =    -150.97408891 Ry
     hartree contribution      =      93.25028563 Ry
     xc contribution           =     -95.23227208 Ry
     ewald contribution        =    -172.65943036 Ry

     convergence has been achieved in   6 iterations

     Writing all to output data dir ./alpha-sn-scf/alphatin.save/ :
     XML data file, charge density, pseudopotentials, collected wavefunctions

     init_run     :      0.53s CPU      0.57s WALL (       1 calls)
     electrons    :      0.31s CPU      0.36s WALL (       1 calls)

     Called by init_run:
     wfcinit      :      0.01s CPU      0.02s WALL (       1 calls)
     potinit      :      0.03s CPU      0.04s WALL (       1 calls)
     hinit0       :      0.45s CPU      0.46s WALL (       1 calls)

     Called by electrons:
     c_bands      :      0.13s CPU      0.15s WALL (       7 calls)
     sum_band     :      0.07s CPU      0.07s WALL (       7 calls)
     v_of_rho     :      0.08s CPU      0.09s WALL (       7 calls)
     newd         :      0.02s CPU      0.02s WALL (       7 calls)
     mix_rho      :      0.01s CPU      0.01s WALL (       7 calls)

     Called by c_bands:
     init_us_2    :      0.00s CPU      0.00s WALL (      15 calls)
     cegterg      :      0.12s CPU      0.13s WALL (       7 calls)

     Called by *egterg:
     cdiaghg      :      0.01s CPU      0.01s WALL (      26 calls)
     h_psi        :      0.11s CPU      0.12s WALL (      28 calls)
     s_psi        :      0.00s CPU      0.00s WALL (      28 calls)
     g_psi        :      0.00s CPU      0.00s WALL (      20 calls)

     Called by h_psi:
     h_psi:calbec :      0.00s CPU      0.00s WALL (      28 calls)
     vloc_psi     :      0.10s CPU      0.11s WALL (      28 calls)
     add_vuspsi   :      0.00s CPU      0.00s WALL (      28 calls)

     General routines
     calbec       :      0.01s CPU      0.01s WALL (      35 calls)
     fft          :      0.44s CPU      0.44s WALL (      78 calls)
     ffts         :      0.00s CPU      0.00s WALL (       7 calls)
     fftw         :      0.11s CPU      0.12s WALL (     616 calls)

     Parallel routines

     PWSCF        :      1.22s CPU      1.48s WALL


   This run was terminated on:  16:16:21   5Feb2026            

=------------------------------------------------------------------------------=
   JOB DONE.
=------------------------------------------------------------------------------=
